    2    2    1    1
  0.3152455E+02  0.4467501E-09  0.4467501E-09  0.4467501E-09  0.5000000E-15
  1.000000000000000E-004
  CAR 
 unknown system                          
   20    4   28
 
  0.0000000E+00  0.0000000E+00  0.0000000E+00  0.2500000E+00
   1      -15.619321
   2      -15.619321
   3      -15.619284
   4      -15.619284
   5      -14.583516
   6      -14.583516
   7      -14.583487
   8      -14.583487
   9      -14.580619
  10      -14.580619
  11       -5.882837
  12       -5.882837
  13        2.158158
  14        2.158158
  15        4.182128
  16        4.182128
  17        4.999744
  18        4.999744
  19        4.999749
  20        4.999749
  21        9.635465
  22        9.635465
  23       10.460287
  24       10.460288
  25       10.460304
  26       10.460305
  27       11.603298
  28       11.604836
 
  0.5000000E+00  0.5000000E+00  0.5000000E+00  0.2500000E+00
   1      -15.620498
   2      -15.620498
   3      -15.616663
   4      -15.616663
   5      -14.588784
   6      -14.588784
   7      -14.580813
   8      -14.580813
   9      -14.576013
  10      -14.576013
  11       -4.620476
  12       -4.620476
  13       -1.437609
  14       -1.437609
  15        4.750577
  16        4.750577
  17        5.324176
  18        5.324176
  19        6.755251
  20        6.755251
  21        6.987067
  22        6.987067
  23        7.178802
  24        7.178802
  25        7.401040
  26        7.401040
  27       14.615887
  28       14.616290
 
  0.5000000E+00  0.2500000E+00  0.7500000E+00  0.2500000E+00
   1      -15.619061
   2      -15.619061
   3      -15.617644
   4      -15.617644
   5      -14.588347
   6      -14.588347
   7      -14.582492
   8      -14.582492
   9      -14.574136
  10      -14.574136
  11       -4.237324
  12       -4.237324
  13       -0.487047
  14       -0.487047
  15        1.973034
  16        1.973034
  17        2.144105
  18        2.144105
  19        6.028189
  20        6.028189
  21        7.693969
  22        7.693969
  23       11.366563
  24       11.366563
  25       11.580962
  26       11.580963
  27       12.830966
  28       12.840173
 
  0.5000000E+00  0.0000000E+00  0.5000000E+00  0.2500000E+00
   1      -15.619613
   2      -15.619613
   3      -15.617247
   4      -15.617247
   5      -14.590172
   6      -14.590172
   7      -14.582986
   8      -14.582986
   9      -14.571849
  10      -14.571849
  11       -4.324813
  12       -4.324813
  13        0.400865
  14        0.400865
  15        1.312433
  16        1.312433
  17        2.925174
  18        2.925174
  19        3.360875
  20        3.360875
  21        9.065502
  22        9.065502
  23       11.373747
  24       11.373747
  25       12.096558
  26       12.096558
  27       13.189225
  28       13.189251
