 vasp.5.3.3 18Dez12 (build Jan 07 2018 16:34:56) complex                        
  
 executed on             LinuxIFC date 2018.04.23  21:41:52
 running on   24 total cores
 distrk:  each k-point on   24 cores,    1 groups
 distr:  one band on NCORES_PER_BAND=   6 cores,    4 groups


--------------------------------------------------------------------------------------------------------


 INCAR:
 POTCAR:    PAW_PBE Sn_d 06Sep2000                
 POTCAR:    PAW_PBE Te 08Apr2002                  
 POTCAR:    PAW_PBE Sn_d 06Sep2000                
   VRHFIN =Sn: s2p2                                                             
   LEXCH  = PE                                                                  
   EATOM  =  1893.1092 eV,  139.1396 Ry                                         
                                                                                
   TITEL  = PAW_PBE Sn_d 06Sep2000                                              
   LULTRA =        F    use ultrasoft PP ?                                      
   IUNSCR =        1    unscreen: 0-lin 1-nonlin 2-no                           
   RPACOR =    2.300    partial core radius                                     
   POMASS =  118.710; ZVAL   =   14.000    mass and valenz                      
   RCORE  =    2.500    outmost cutoff radius                                   
   RWIGS  =    2.960; RWIGS  =    1.566    wigner-seitz radius (au A)           
   ENMAX  =  241.083; ENMIN  =  180.812 eV                                      
   ICORE  =        3    local potential                                         
   LCOR   =        T    correct aug charges                                     
   LPAW   =        T    paw PP                                                  
   EAUG   =  439.825                                                            
   DEXC   =    0.000                                                            
   RMAX   =    2.560    core radius for proj-oper                               
   RAUG   =    1.300    factor for augmentation sphere                          
   RDEP   =    2.659    radius for radial grids                                 
   RDEPT  =    2.046    core radius for aug-charge                              
                                                                                
   Atomic configuration                                                         
   12 entries                                                                   
     n  l   j            E        occ.                                          
     1  0  0.50    -29007.2859   2.0000                                         
     2  0  0.50     -4378.8056   2.0000                                         
     2  1  1.50     -3930.4293   6.0000                                         
     3  0  0.50      -845.0264   2.0000                                         
     3  1  1.50      -698.5725   6.0000                                         
     3  2  2.50      -473.2839  10.0000                                         
     4  0  0.50      -133.9036   2.0000                                         
     4  1  1.50       -89.6752   6.0000                                         
     4  2  2.50       -25.8375  10.0000                                         
     5  0  0.50       -10.5484   2.0000                                         
     5  1  0.50        -3.6940   2.0000                                         
     4  3  2.50        -2.7416   0.0000                                         
   Description                                                                  
     l       E           TYP  RCUT    TYP  RCUT                                 
     2    -25.8374624     23  2.500                                             
     2     -5.4423304     23  2.500                                             
     0    -10.5483727     23  2.500                                             
     0     13.6058260     23  2.500                                             
     1     -3.6939829     23  2.500                                             
     1      1.9821976     23  2.500                                             
     3     -1.3605826      7  2.500                                             
  local pseudopotential read in
  partial core-charges read in
  partial kinetic energy density read in
  atomic valenz-charges read in
  non local Contribution for L=           2  read in
    real space projection operators read in
  non local Contribution for L=           2  read in
    real space projection operators read in
  non local Contribution for L=           0  read in
    real space projection operators read in
  non local Contribution for L=           0  read in
    real space projection operators read in
  non local Contribution for L=           1  read in
    real space projection operators read in
  non local Contribution for L=           1  read in
    real space projection operators read in
    PAW grid and wavefunctions read in
 
   number of l-projection  operators is LMAX  =           6
   number of lm-projection operators is LMMAX =          18
 
 POTCAR:    PAW_PBE Te 08Apr2002                  
   VRHFIN =Te: s2p4                                                             
   LEXCH  = PE                                                                  
   EATOM  =   223.2721 eV,   16.4100 Ry                                         
                                                                                
   TITEL  = PAW_PBE Te 08Apr2002                                                
   LULTRA =        F    use ultrasoft PP ?                                      
   IUNSCR =        1    unscreen: 0-lin 1-nonlin 2-no                           
   RPACOR =    2.200    partial core radius                                     
   POMASS =  127.600; ZVAL   =    6.000    mass and valenz                      
   RCORE  =    2.300    outmost cutoff radius                                   
   RWIGS  =    2.900; RWIGS  =    1.535    wigner-seitz radius (au A)           
   ENMAX  =  174.982; ENMIN  =  131.236 eV                                      
   ICORE  =        3    local potential                                         
   LCOR   =        T    correct aug charges                                     
   LPAW   =        T    paw PP                                                  
   EAUG   =  368.792                                                            
   DEXC   =    0.000                                                            
   RMAX   =    2.345    core radius for proj-oper                               
   RAUG   =    1.300    factor for augmentation sphere                          
   RDEP   =    2.397    radius for radial grids                                 
   RDEPT  =    2.174    core radius for aug-charge                              
                                                                                
   Atomic configuration                                                         
   13 entries                                                                   
     n  l   j            E        occ.                                          
     1  0  0.50    -31621.2075   2.0000                                         
     2  0  0.50     -4848.7941   2.0000                                         
     2  1  1.50     -4352.1960   6.0000                                         
     3  0  0.50      -964.9612   2.0000                                         
     3  1  1.50      -803.6179   6.0000                                         
     3  2  2.50      -559.8710  10.0000                                         
     4  0  0.50      -164.3522   2.0000                                         
     4  1  1.50      -114.3756   6.0000                                         
     4  2  2.50       -41.6483  10.0000                                         
     5  0  0.50       -15.1072   2.0000                                         
     5  1  0.50        -5.9526   4.0000                                         
     5  2  1.50        -5.4423   0.0000                                         
     4  3  2.50        -5.4423   0.0000                                         
   Description                                                                  
     l       E           TYP  RCUT    TYP  RCUT                                 
     0    -15.1072389     23  2.300                                             
     0    -16.4678215     23  2.300                                             
     1     -5.9526306     23  2.300                                             
     1     -2.4873968     23  2.300                                             
     2     -5.4423304     23  2.300                                             
     3     -1.3605826     23  2.300                                             
  local pseudopotential read in
  partial core-charges read in
  partial kinetic energy density read in
  atomic valenz-charges read in
  non local Contribution for L=           0  read in
    real space projection operators read in
  non local Contribution for L=           0  read in
    real space projection operators read in
  non local Contribution for L=           1  read in
    real space projection operators read in
  non local Contribution for L=           1  read in
    real space projection operators read in
  non local Contribution for L=           2  read in
    real space projection operators read in
    PAW grid and wavefunctions read in
 
   number of l-projection  operators is LMAX  =           5
   number of lm-projection operators is LMMAX =          13
 

 ----------------------------------------------------------------------------- 
|                                                                             |
|  ADVICE TO THIS USER RUNNING 'VASP/VAMP'   (HEAR YOUR MASTER'S VOICE ...):  |
|                                                                             |
|      You have a (more or less) 'small supercell' and for smaller cells      |
|      it is recommended  to use the reciprocal-space projection scheme!      |
|      The real space optimization is not  efficient for small cells and it   |
|      is also less accurate ...                                              |
|      Therefore set LREAL=.FALSE. in the  INCAR file                         |
|                                                                             |
 ----------------------------------------------------------------------------- 

 Optimization of the real space projectors (new method)

 maximal supplied QI-value         = 15.12
 optimisation between [QCUT,QGAM] = [  8.77, 22.22] = [ 21.53,138.30] Ry 
 Optimized for a Real-space Cutoff    1.39 Angstroem

   l    n(q)    QCUT    max X(q) W(low)/X(q) W(high)/X(q)  e(spline) 
   2      8     8.768     5.880    0.37E-04    0.20E-04    0.53E-07
   2      8     8.768     7.804    0.61E-04    0.12E-03    0.14E-06
   0      9     8.768    20.557    0.47E-04    0.58E-04    0.78E-07
   0      9     8.768     9.400    0.53E-04    0.73E-04    0.10E-06
   1      9     8.768    94.178    0.19E-03    0.30E-04    0.23E-06
   1      9     8.768    56.401    0.18E-03    0.29E-04    0.22E-06
 Optimization of the real space projectors (new method)

 maximal supplied QI-value         = 16.25
 optimisation between [QCUT,QGAM] = [  8.78, 22.10] = [ 21.57,136.80] Ry 
 Optimized for a Real-space Cutoff    1.27 Angstroem

   l    n(q)    QCUT    max X(q) W(low)/X(q) W(high)/X(q)  e(spline) 
   0      8     8.776   224.858    0.39E-03    0.40E-04    0.17E-06
   0      8     8.776   205.313    0.39E-03    0.41E-04    0.17E-06
   1      8     8.776   119.695    0.11E-03    0.51E-03    0.22E-06
   1      8     8.776    84.282    0.11E-03    0.50E-03    0.22E-06
   2      7     8.776     5.599    0.25E-03    0.28E-04    0.33E-07
  PAW_PBE Sn_d 06Sep2000                :
 energy of atom  1       EATOM=-1893.1092
 kinetic energy error for atom=    0.0334 (will be added to EATOM!!)
  PAW_PBE Te 08Apr2002                  :
 energy of atom  2       EATOM= -223.2721
 kinetic energy error for atom=    0.0026 (will be added to EATOM!!)
 
 
 POSCAR: Sn Te                                   
  positions in direct lattice
  No initial velocities read in
 exchange correlation table for  LEXCH =        8
   RHO(1)=    0.500       N(1)  =     2000
   RHO(2)=  100.500       N(2)  =     4000
 


--------------------------------------------------------------------------------------------------------


 ion  position               nearest neighbor table
   1  0.000  0.000  0.000-   2 3.16   2 3.16   2 3.16   2 3.16   2 3.16   2 3.16
   2  0.500  0.500  0.500-   1 3.16   1 3.16   1 3.16   1 3.16   1 3.16   1 3.16
 
  LATTYP: Found a face centered cubic cell.
 ALAT       =     6.3180001411
  
  Lattice vectors:
  
 A1 = (   0.0000000000,   3.1590000705,   3.1590000705)
 A2 = (   3.1590000705,   0.0000000000,   3.1590000705)
 A3 = (   3.1590000705,   3.1590000705,   0.0000000000)


Analysis of symmetry for initial positions (statically):
=====================================================================
 Subroutine PRICEL returns:
 Original cell was already a primitive cell.
 

 Routine SETGRP: Setting up the symmetry group for a 
 face centered cubic supercell.


 Subroutine GETGRP returns: Found 48 space group operations
 (whereof 48 operations were pure point group operations)
 out of a pool of 48 trial point group operations.


The static configuration has the point symmetry O_h .


Analysis of symmetry for dynamics (positions and initial velocities):
=====================================================================
 Subroutine PRICEL returns:
 Original cell was already a primitive cell.
 

 Routine SETGRP: Setting up the symmetry group for a 
 face centered cubic supercell.


 Subroutine GETGRP returns: Found 48 space group operations
 (whereof 48 operations were pure point group operations)
 out of a pool of 48 trial point group operations.


The dynamic configuration has the point symmetry O_h .


Analysis of structural, dynamic, and magnetic symmetry:
=====================================================================
 Subroutine PRICEL returns:
 Original cell was already a primitive cell.
 

 Routine SETGRP: Setting up the symmetry group for a 
 face centered cubic supercell.


 Subroutine GETGRP returns: Found 48 space group operations
 (whereof 48 operations were pure point group operations)
 out of a pool of 48 trial point group operations.


The (compounded) configuration has the point symmetry O_h .


 irot  :   1
 --------------------------------------------------------------------
 isymop:   1   0   0
           0   1   0
           0   0   1

 gtrans:     0.0000000     0.0000000     0.0000000

 ptrans:     0.0000000     0.0000000     0.0000000
 rotmap:
 (   1->   1)  (   2->   2) 


 irot  :   2
 --------------------------------------------------------------------
 isymop:  -1   0   0
           0  -1   0
           0   0  -1

 gtrans:     0.0000000     0.0000000     0.0000000

 ptrans:     0.0000000     0.0000000     0.0000000
 rotmap:
 (   1->   1)  (   2->   2) 


 irot  :   3
 --------------------------------------------------------------------
 isymop:   0   0   1
           1   0   0
           0   1   0

 gtrans:     0.0000000     0.0000000     0.0000000

 ptrans:     0.0000000     0.0000000     0.0000000
 rotmap:
 (   1->   1)  (   2->   2) 


 irot  :   4
 --------------------------------------------------------------------
 isymop:   0   0  -1
          -1   0   0
           0  -1   0

 gtrans:     0.0000000     0.0000000     0.0000000

 ptrans:     0.0000000     0.0000000     0.0000000
 rotmap:
 (   1->   1)  (   2->   2) 


 irot  :   5
 --------------------------------------------------------------------
 isymop:   0   1   0
           0   0   1
           1   0   0

 gtrans:     0.0000000     0.0000000     0.0000000

 ptrans:     0.0000000     0.0000000     0.0000000
 rotmap:
 (   1->   1)  (   2->   2) 


 irot  :   6
 --------------------------------------------------------------------
 isymop:   0  -1   0
           0   0  -1
          -1   0   0

 gtrans:     0.0000000     0.0000000     0.0000000

 ptrans:     0.0000000     0.0000000     0.0000000
 rotmap:
 (   1->   1)  (   2->   2) 


 irot  :   7
 --------------------------------------------------------------------
 isymop:   1   1   1
           0   0  -1
          -1   0   0

 gtrans:     0.0000000     0.0000000     0.0000000

 ptrans:     0.0000000     0.0000000     0.0000000
 rotmap:
 (   1->   1)  (   2->   2) 


 irot  :   8
 --------------------------------------------------------------------
 isymop:  -1  -1  -1
           0   0   1
           1   0   0

 gtrans:     0.0000000     0.0000000     0.0000000

 ptrans:     0.0000000     0.0000000     0.0000000
 rotmap:
 (   1->   1)  (   2->   2) 


 irot  :   9
 --------------------------------------------------------------------
 isymop:   1   1   1
           0  -1   0
           0   0  -1

 gtrans:     0.0000000     0.0000000     0.0000000

 ptrans:     0.0000000     0.0000000     0.0000000
 rotmap:
 (   1->   1)  (   2->   2) 


 irot  :  10
 --------------------------------------------------------------------
 isymop:  -1  -1  -1
           0   1   0
           0   0   1

 gtrans:     0.0000000     0.0000000     0.0000000

 ptrans:     0.0000000     0.0000000     0.0000000
 rotmap:
 (   1->   1)  (   2->   2) 


 irot  :  11
 --------------------------------------------------------------------
 isymop:   1   1   1
          -1   0   0
           0  -1   0

 gtrans:     0.0000000     0.0000000     0.0000000

 ptrans:     0.0000000     0.0000000     0.0000000
 rotmap:
 (   1->   1)  (   2->   2) 


 irot  :  12
 --------------------------------------------------------------------
 isymop:  -1  -1  -1
           1   0   0
           0   1   0

 gtrans:     0.0000000     0.0000000     0.0000000

 ptrans:     0.0000000     0.0000000     0.0000000
 rotmap:
 (   1->   1)  (   2->   2) 


 irot  :  13
 --------------------------------------------------------------------
 isymop:   0   1   0
           1   0   0
          -1  -1  -1

 gtrans:     0.0000000     0.0000000     0.0000000

 ptrans:     0.0000000     0.0000000     0.0000000
 rotmap:
 (   1->   1)  (   2->   2) 


 irot  :  14
 --------------------------------------------------------------------
 isymop:   0  -1   0
          -1   0   0
           1   1   1

 gtrans:     0.0000000     0.0000000     0.0000000

 ptrans:     0.0000000     0.0000000     0.0000000
 rotmap:
 (   1->   1)  (   2->   2) 


 irot  :  15
 --------------------------------------------------------------------
 isymop:   1   0   0
           0   0   1
          -1  -1  -1

 gtrans:     0.0000000     0.0000000     0.0000000

 ptrans:     0.0000000     0.0000000     0.0000000
 rotmap:
 (   1->   1)  (   2->   2) 


 irot  :  16
 --------------------------------------------------------------------
 isymop:  -1   0   0
           0   0  -1
           1   1   1

 gtrans:     0.0000000     0.0000000     0.0000000

 ptrans:     0.0000000     0.0000000     0.0000000
 rotmap:
 (   1->   1)  (   2->   2) 


 irot  :  17
 --------------------------------------------------------------------
 isymop:   0   0   1
           0   1   0
          -1  -1  -1

 gtrans:     0.0000000     0.0000000     0.0000000

 ptrans:     0.0000000     0.0000000     0.0000000
 rotmap:
 (   1->   1)  (   2->   2) 


 irot  :  18
 --------------------------------------------------------------------
 isymop:   0   0  -1
           0  -1   0
           1   1   1

 gtrans:     0.0000000     0.0000000     0.0000000

 ptrans:     0.0000000     0.0000000     0.0000000
 rotmap:
 (   1->   1)  (   2->   2) 


 irot  :  19
 --------------------------------------------------------------------
 isymop:   0   0  -1
           1   1   1
           0  -1   0

 gtrans:     0.0000000     0.0000000     0.0000000

 ptrans:     0.0000000     0.0000000     0.0000000
 rotmap:
 (   1->   1)  (   2->   2) 


 irot  :  20
 --------------------------------------------------------------------
 isymop:   0   0   1
          -1  -1  -1
           0   1   0

 gtrans:     0.0000000     0.0000000     0.0000000

 ptrans:     0.0000000     0.0000000     0.0000000
 rotmap:
 (   1->   1)  (   2->   2) 


 irot  :  21
 --------------------------------------------------------------------
 isymop:   0  -1   0
           1   1   1
          -1   0   0

 gtrans:     0.0000000     0.0000000     0.0000000

 ptrans:     0.0000000     0.0000000     0.0000000
 rotmap:
 (   1->   1)  (   2->   2) 


 irot  :  22
 --------------------------------------------------------------------
 isymop:   0   1   0
          -1  -1  -1
           1   0   0

 gtrans:     0.0000000     0.0000000     0.0000000

 ptrans:     0.0000000     0.0000000     0.0000000
 rotmap:
 (   1->   1)  (   2->   2) 


 irot  :  23
 --------------------------------------------------------------------
 isymop:  -1   0   0
           1   1   1
           0   0  -1

 gtrans:     0.0000000     0.0000000     0.0000000

 ptrans:     0.0000000     0.0000000     0.0000000
 rotmap:
 (   1->   1)  (   2->   2) 


 irot  :  24
 --------------------------------------------------------------------
 isymop:   1   0   0
          -1  -1  -1
           0   0   1

 gtrans:     0.0000000     0.0000000     0.0000000

 ptrans:     0.0000000     0.0000000     0.0000000
 rotmap:
 (   1->   1)  (   2->   2) 


 irot  :  25
 --------------------------------------------------------------------
 isymop:  -1  -1  -1
           0   1   0
           1   0   0

 gtrans:     0.0000000     0.0000000     0.0000000

 ptrans:     0.0000000     0.0000000     0.0000000
 rotmap:
 (   1->   1)  (   2->   2) 


 irot  :  26
 --------------------------------------------------------------------
 isymop:   1   1   1
           0  -1   0
          -1   0   0

 gtrans:     0.0000000     0.0000000     0.0000000

 ptrans:     0.0000000     0.0000000     0.0000000
 rotmap:
 (   1->   1)  (   2->   2) 


 irot  :  27
 --------------------------------------------------------------------
 isymop:  -1  -1  -1
           1   0   0
           0   0   1

 gtrans:     0.0000000     0.0000000     0.0000000

 ptrans:     0.0000000     0.0000000     0.0000000
 rotmap:
 (   1->   1)  (   2->   2) 


 irot  :  28
 --------------------------------------------------------------------
 isymop:   1   1   1
          -1   0   0
           0   0  -1

 gtrans:     0.0000000     0.0000000     0.0000000

 ptrans:     0.0000000     0.0000000     0.0000000
 rotmap:
 (   1->   1)  (   2->   2) 


 irot  :  29
 --------------------------------------------------------------------
 isymop:  -1  -1  -1
           0   0   1
           0   1   0

 gtrans:     0.0000000     0.0000000     0.0000000

 ptrans:     0.0000000     0.0000000     0.0000000
 rotmap:
 (   1->   1)  (   2->   2) 


 irot  :  30
 --------------------------------------------------------------------
 isymop:   1   1   1
           0   0  -1
           0  -1   0

 gtrans:     0.0000000     0.0000000     0.0000000

 ptrans:     0.0000000     0.0000000     0.0000000
 rotmap:
 (   1->   1)  (   2->   2) 


 irot  :  31
 --------------------------------------------------------------------
 isymop:   0  -1   0
           0   0  -1
           1   1   1

 gtrans:     0.0000000     0.0000000     0.0000000

 ptrans:     0.0000000     0.0000000     0.0000000
 rotmap:
 (   1->   1)  (   2->   2) 


 irot  :  32
 --------------------------------------------------------------------
 isymop:   0   1   0
           0   0   1
          -1  -1  -1

 gtrans:     0.0000000     0.0000000     0.0000000

 ptrans:     0.0000000     0.0000000     0.0000000
 rotmap:
 (   1->   1)  (   2->   2) 


 irot  :  33
 --------------------------------------------------------------------
 isymop:  -1   0   0
           0  -1   0
           1   1   1

 gtrans:     0.0000000     0.0000000     0.0000000

 ptrans:     0.0000000     0.0000000     0.0000000
 rotmap:
 (   1->   1)  (   2->   2) 


 irot  :  34
 --------------------------------------------------------------------
 isymop:   1   0   0
           0   1   0
          -1  -1  -1

 gtrans:     0.0000000     0.0000000     0.0000000

 ptrans:     0.0000000     0.0000000     0.0000000
 rotmap:
 (   1->   1)  (   2->   2) 


 irot  :  35
 --------------------------------------------------------------------
 isymop:   0   0  -1
          -1   0   0
           1   1   1

 gtrans:     0.0000000     0.0000000     0.0000000

 ptrans:     0.0000000     0.0000000     0.0000000
 rotmap:
 (   1->   1)  (   2->   2) 


 irot  :  36
 --------------------------------------------------------------------
 isymop:   0   0   1
           1   0   0
          -1  -1  -1

 gtrans:     0.0000000     0.0000000     0.0000000

 ptrans:     0.0000000     0.0000000     0.0000000
 rotmap:
 (   1->   1)  (   2->   2) 


 irot  :  37
 --------------------------------------------------------------------
 isymop:   1   0   0
          -1  -1  -1
           0   1   0

 gtrans:     0.0000000     0.0000000     0.0000000

 ptrans:     0.0000000     0.0000000     0.0000000
 rotmap:
 (   1->   1)  (   2->   2) 


 irot  :  38
 --------------------------------------------------------------------
 isymop:  -1   0   0
           1   1   1
           0  -1   0

 gtrans:     0.0000000     0.0000000     0.0000000

 ptrans:     0.0000000     0.0000000     0.0000000
 rotmap:
 (   1->   1)  (   2->   2) 


 irot  :  39
 --------------------------------------------------------------------
 isymop:   0   0   1
          -1  -1  -1
           1   0   0

 gtrans:     0.0000000     0.0000000     0.0000000

 ptrans:     0.0000000     0.0000000     0.0000000
 rotmap:
 (   1->   1)  (   2->   2) 


 irot  :  40
 --------------------------------------------------------------------
 isymop:   0   0  -1
           1   1   1
          -1   0   0

 gtrans:     0.0000000     0.0000000     0.0000000

 ptrans:     0.0000000     0.0000000     0.0000000
 rotmap:
 (   1->   1)  (   2->   2) 


 irot  :  41
 --------------------------------------------------------------------
 isymop:   0   1   0
          -1  -1  -1
           0   0   1

 gtrans:     0.0000000     0.0000000     0.0000000

 ptrans:     0.0000000     0.0000000     0.0000000
 rotmap:
 (   1->   1)  (   2->   2) 


 irot  :  42
 --------------------------------------------------------------------
 isymop:   0  -1   0
           1   1   1
           0   0  -1

 gtrans:     0.0000000     0.0000000     0.0000000

 ptrans:     0.0000000     0.0000000     0.0000000
 rotmap:
 (   1->   1)  (   2->   2) 


 irot  :  43
 --------------------------------------------------------------------
 isymop:  -1   0   0
           0   0  -1
           0  -1   0

 gtrans:     0.0000000     0.0000000     0.0000000

 ptrans:     0.0000000     0.0000000     0.0000000
 rotmap:
 (   1->   1)  (   2->   2) 


 irot  :  44
 --------------------------------------------------------------------
 isymop:   1   0   0
           0   0   1
           0   1   0

 gtrans:     0.0000000     0.0000000     0.0000000

 ptrans:     0.0000000     0.0000000     0.0000000
 rotmap:
 (   1->   1)  (   2->   2) 


 irot  :  45
 --------------------------------------------------------------------
 isymop:   0  -1   0
          -1   0   0
           0   0  -1

 gtrans:     0.0000000     0.0000000     0.0000000

 ptrans:     0.0000000     0.0000000     0.0000000
 rotmap:
 (   1->   1)  (   2->   2) 


 irot  :  46
 --------------------------------------------------------------------
 isymop:   0   1   0
           1   0   0
           0   0   1

 gtrans:     0.0000000     0.0000000     0.0000000

 ptrans:     0.0000000     0.0000000     0.0000000
 rotmap:
 (   1->   1)  (   2->   2) 


 irot  :  47
 --------------------------------------------------------------------
 isymop:   0   0  -1
           0  -1   0
          -1   0   0

 gtrans:     0.0000000     0.0000000     0.0000000

 ptrans:     0.0000000     0.0000000     0.0000000
 rotmap:
 (   1->   1)  (   2->   2) 


 irot  :  48
 --------------------------------------------------------------------
 isymop:   0   0   1
           0   1   0
           1   0   0

 gtrans:     0.0000000     0.0000000     0.0000000

 ptrans:     0.0000000     0.0000000     0.0000000
 rotmap:
 (   1->   1)  (   2->   2) 
 
 
 KPOINTS: K-Points                                
  k-points in reciprocal lattice
Space group operators:
 irot       det(A)        alpha          n_x          n_y          n_z        tau_x        tau_y        tau_z
    1     1.000000     0.000001     1.000000     0.000000     0.000000     0.000000     0.000000     0.000000
    2    -1.000000     0.000001     1.000000     0.000000     0.000000     0.000000     0.000000     0.000000
    3     1.000000   120.000000    -0.577350    -0.577350    -0.577350     0.000000     0.000000     0.000000
    4    -1.000000   120.000000    -0.577350    -0.577350    -0.577350     0.000000     0.000000     0.000000
    5     1.000000   120.000000     0.577350     0.577350     0.577350     0.000000     0.000000     0.000000
    6    -1.000000   120.000000     0.577350     0.577350     0.577350     0.000000     0.000000     0.000000
    7     1.000000    90.000000     0.000000     0.000000    -1.000000     0.000000     0.000000     0.000000
    8    -1.000000    90.000000     0.000000     0.000000    -1.000000     0.000000     0.000000     0.000000
    9     1.000000   180.000000     0.000000     0.707107     0.707107     0.000000     0.000000     0.000000
   10    -1.000000   180.000000     0.000000     0.707107     0.707107     0.000000     0.000000     0.000000
   11     1.000000    90.000000     0.000000     1.000000     0.000000     0.000000     0.000000     0.000000
   12    -1.000000    90.000000     0.000000     1.000000     0.000000     0.000000     0.000000     0.000000
   13     1.000000   180.000000     0.000000     0.000000     1.000000     0.000000     0.000000     0.000000
   14    -1.000000   180.000000     0.000000     0.000000     1.000000     0.000000     0.000000     0.000000
   15     1.000000   120.000000    -0.577350     0.577350     0.577350     0.000000     0.000000     0.000000
   16    -1.000000   120.000000    -0.577350     0.577350     0.577350     0.000000     0.000000     0.000000
   17     1.000000   120.000000    -0.577350     0.577350    -0.577350     0.000000     0.000000     0.000000
   18    -1.000000   120.000000    -0.577350     0.577350    -0.577350     0.000000     0.000000     0.000000
   19     1.000000    90.000000     0.000000     0.000000     1.000000     0.000000     0.000000     0.000000
   20    -1.000000    90.000000     0.000000     0.000000     1.000000     0.000000     0.000000     0.000000
   21     1.000000    90.000000    -1.000000     0.000000     0.000000     0.000000     0.000000     0.000000
   22    -1.000000    90.000000    -1.000000     0.000000     0.000000     0.000000     0.000000     0.000000
   23     1.000000   180.000000     0.707107     0.000000     0.707107     0.000000     0.000000     0.000000
   24    -1.000000   180.000000     0.707107     0.000000     0.707107     0.000000     0.000000     0.000000
   25     1.000000   120.000000     0.577350    -0.577350     0.577350     0.000000     0.000000     0.000000
   26    -1.000000   120.000000     0.577350    -0.577350     0.577350     0.000000     0.000000     0.000000
   27     1.000000   120.000000    -0.577350    -0.577350     0.577350     0.000000     0.000000     0.000000
   28    -1.000000   120.000000    -0.577350    -0.577350     0.577350     0.000000     0.000000     0.000000
   29     1.000000   180.000000     1.000000     0.000000     0.000000     0.000000     0.000000     0.000000
   30    -1.000000   180.000000     1.000000     0.000000     0.000000     0.000000     0.000000     0.000000
   31     1.000000    90.000000     0.000000    -1.000000     0.000000     0.000000     0.000000     0.000000
   32    -1.000000    90.000000     0.000000    -1.000000     0.000000     0.000000     0.000000     0.000000
   33     1.000000   180.000000     0.707107     0.707107     0.000000     0.000000     0.000000     0.000000
   34    -1.000000   180.000000     0.707107     0.707107     0.000000     0.000000     0.000000     0.000000
   35     1.000000    90.000000     1.000000     0.000000     0.000000     0.000000     0.000000     0.000000
   36    -1.000000    90.000000     1.000000     0.000000     0.000000     0.000000     0.000000     0.000000
   37     1.000000   120.000000     0.577350    -0.577350    -0.577350     0.000000     0.000000     0.000000
   38    -1.000000   120.000000     0.577350    -0.577350    -0.577350     0.000000     0.000000     0.000000
   39     1.000000   180.000000     0.000000     1.000000     0.000000     0.000000     0.000000     0.000000
   40    -1.000000   180.000000     0.000000     1.000000     0.000000     0.000000     0.000000     0.000000
   41     1.000000   120.000000     0.577350     0.577350    -0.577350     0.000000     0.000000     0.000000
   42    -1.000000   120.000000     0.577350     0.577350    -0.577350     0.000000     0.000000     0.000000
   43     1.000000   180.000000     0.000000    -0.707107     0.707107     0.000000     0.000000     0.000000
   44    -1.000000   180.000000     0.000000    -0.707107     0.707107     0.000000     0.000000     0.000000
   45     1.000000   180.000000     0.707107    -0.707107     0.000000     0.000000     0.000000     0.000000
   46    -1.000000   180.000000     0.707107    -0.707107     0.000000     0.000000     0.000000     0.000000
   47     1.000000   180.000000     0.707107     0.000000    -0.707107     0.000000     0.000000     0.000000
   48    -1.000000   180.000000     0.707107     0.000000    -0.707107     0.000000     0.000000     0.000000


--------------------------------------------------------------------------------------------------------




 Dimension of arrays:
   k-points           NKPTS =      4   k-points in BZ     NKDIM =      4   number of bands    NBANDS=     28
   number of dos      NEDOS =    301   number of ions     NIONS =      2
   non local maximal  LDIM  =      6   non local SUM 2l+1 LMDIM =     18
   total plane-waves  NPLWV =  21952
   max r-space proj   IRMAX =   3970   max aug-charges    IRDMAX=   7579
   dimension x,y,z NGX =    28 NGY =   28 NGZ =   28
   dimension x,y,z NGXF=    40 NGYF=   40 NGZF=   40
   support grid    NGXF=    40 NGYF=   40 NGZF=   40
   ions per type =               1   1
 NGX,Y,Z   is equivalent  to a cutoff of  10.42, 10.42, 10.42 a.u.
 NGXF,Y,Z  is equivalent  to a cutoff of  14.88, 14.88, 14.88 a.u.


 I would recommend the setting:
   dimension x,y,z NGX =    25 NGY =   25 NGZ =   25
 SYSTEM =  unknown system                          
 POSCAR =  Sn Te                                   

 Startparameter for this run:
   NWRITE =      2    write-flag & timer
   PREC   = high      normal or accurate (medium, high low for compatibility)
   ISTART =      0    job   : 0-new  1-cont  2-samecut
   ICHARG =     11    charge: 1-file 2-atom 10-const
   ISPIN  =      1    spin polarized calculation?
   LNONCOLLINEAR =      T non collinear calculations
   LSORBIT =      T    spin-orbit coupling
   INIWAV =      1    electr: 0-lowe 1-rand  2-diag
   LASPH  =      F    aspherical Exc in radial PAW
   METAGGA=      F    non-selfconsistent MetaGGA calc.

 Electronic Relaxation 1
   ENCUT  =  301.4 eV  22.15 Ry    4.71 a.u.   6.32  6.32  6.32*2*pi/ulx,y,z
   ENINI  =  301.4     initial cutoff
   ENAUG  =  439.8 eV  augmentation charge cutoff
   NELM   =    300;   NELMIN=  2; NELMDL= -5     # of ELM steps 
   EDIFF  = 0.1E-05   stopping-criterion for ELM
   LREAL  =      T    real-space projection
   NLSPLINE    = F    spline interpolate recip. space projectors
   LCOMPAT=      F    compatible to vasp.4.4
   GGA_COMPAT  = T    GGA compatible to vasp.4.4-vasp.4.6
   LMAXPAW     = -100 max onsite density
   LMAXMIX     =    4 max onsite mixed and CHGCAR
   VOSKOWN=      0    Vosko Wilk Nusair interpolation
   ROPT   =   -0.00040  -0.00040
 Ionic relaxation
   EDIFFG = 0.1E-04   stopping-criterion for IOM
   NSW    =      0    number of steps for IOM
   NBLOCK =      1;   KBLOCK =      1    inner block; outer block 
   IBRION =     -1    ionic relax: 0-MD 1-quasi-New 2-CG
   NFREE  =      0    steps in history (QN), initial steepest desc. (CG)
   ISIF   =      2    stress and relaxation
   IWAVPR =     10    prediction:  0-non 1-charg 2-wave 3-comb
   ISYM   =      2    0-nonsym 1-usesym 2-fastsym
   LCORR  =      T    Harris-Foulkes like correction to forces

   POTIM  = 0.5000    time-step for ionic-motion
   TEIN   =    0.0    initial temperature
   TEBEG  =    0.0;   TEEND  =   0.0 temperature during run
   SMASS  =  -3.00    Nose mass-parameter (am)
   estimated Nose-frequenzy (Omega)   =  0.10E-29 period in steps =****** mass=  -0.456E-27a.u.
   SCALEE = 1.0000    scale energy and forces
   NPACO  =    256;   APACO  = 16.0  distance and # of slots for P.C.
   PSTRESS=    0.0 pullay stress

  Mass of Ions in am
   POMASS = 118.71127.60
  Ionic Valenz
   ZVAL   =  14.00  6.00
  Atomic Wigner-Seitz radii
   RWIGS  =  -1.00 -1.00
  virtual crystal weights 
   VCA    =   1.00  1.00
   NELECT =      20.0000    total number of electrons
   NUPDOWN=      -1.0000    fix difference up-down

 DOS related values:
   EMIN   =  10.00;   EMAX   =-10.00  energy-range for DOS
   EFERMI =   0.00
   ISMEAR =     0;   SIGMA  =   0.20  broadening in eV -4-tet -1-fermi 0-gaus

 Electronic relaxation 2 (details)
   IALGO  =     38    algorithm
   LDIAG  =      T    sub-space diagonalisation (order eigenvalues)
   LSUBROT=      T    optimize rotation matrix (better conditioning)
   TURBO    =      0    0=normal 1=particle mesh
   IRESTART =      0    0=no restart 2=restart with 2 vectors
   NREBOOT  =      0    no. of reboots
   NMIN     =      0    reboot dimension
   EREF     =   0.00    reference energy to select bands
   IMIX   =      4    mixing-type and parameters
     AMIX     =   0.40;   BMIX     =  1.00
     AMIX_MAG =   1.60;   BMIX_MAG =  1.00
     AMIN     =   0.10
     WC   =   100.;   INIMIX=   1;  MIXPRE=   1;  MAXMIX= -45

 Intra band minimization:
   WEIMIN = 0.0000     energy-eigenvalue tresh-hold
   EBREAK =  0.89E-08  absolut break condition
   DEPER  =   0.30     relativ break condition  

   TIME   =   0.40     timestep for ELM

  volume/ion in A,a.u.               =      31.52       212.74
  Fermi-wavevector in a.u.,A,eV,Ry     =   1.116499  2.109878 16.960630  1.246571
  Thomas-Fermi vector in A             =   2.253114
 
 Write flags
   LWAVE  =      T    write WAVECAR
   LCHARG =      T    write CHGCAR
   LVTOT  =      F    write LOCPOT, total local potential
   LVHAR  =      F    write LOCPOT, Hartree potential only
   LELF   =      F    write electronic localiz. function (ELF)
   LORBIT =     11    0 simple, 1 ext, 2 COOP (PROOUT)


 Dipole corrections
   LMONO  =      F    monopole corrections only (constant potential shift)
   LDIPOL =      F    correct potential (dipole corrections)
   IDIPOL =      0    1-x, 2-y, 3-z, 4-all directions 
   EPSILON=  1.0000000 bulk dielectric constant

 Exchange correlation treatment:
   GGA     =    --    GGA type
   LEXCH   =     8    internal setting for exchange type
   VOSKOWN=      0    Vosko Wilk Nusair interpolation
   LHFCALC =     F    Hartree Fock is set to
   LHFONE  =     F    Hartree Fock one center treatment
   AEXX    =    0.0000 exact exchange contribution

 Linear response parameters
   LEPSILON=     F    determine dielectric tensor
   LRPA    =     F    only Hartree local field effects (RPA)
   LNABLA  =     F    use nabla operator in PAW spheres
   LVEL    =     F    velocity operator in full k-point grid
   LINTERFAST=   F  fast interpolation
   KINTER  =     0    interpolate to denser k-point grid
   CSHIFT  =0.1000    complex shift for real part using Kramers Kronig
   OMEGAMAX=  -1.0    maximum frequency
   DEG_THRESHOLD= 0.2000000E-02 threshold for treating states as degnerate
   RTIME   =    0.100 relaxation time in fs

 Orbital magnetization related:
   ORBITALMAG=     F  switch on orbital magnetization
   LCHIMAG   =     F  perturbation theory with respect to B field
   DQ        =  0.001000  dq finite difference perturbation B field



--------------------------------------------------------------------------------------------------------


 Static calculation
 charge density and potential remain constant during run
 non collinear spin polarized calculation
 Variant of blocked Davidson
 Davidson routine will perform the subspace rotation
 perform sub-space diagonalisation
    after iterative eigenvector-optimisation
 no mixing
 using additional bands           18
 real space projection scheme for non local part
 use partial core corrections
 calculate Harris-corrections to forces 
   (improved forces if not selfconsistent)
 use gradient corrections 
 WARNING: stress and forces are not correct
  (second derivative of E(xc) not defined)
 use of overlap-Matrix (Vanderbilt PP)
 Gauss-broadening in eV      SIGMA  =   0.20


--------------------------------------------------------------------------------------------------------


  energy-cutoff  :      301.35
  volume of cell :       63.05
      direct lattice vectors                 reciprocal lattice vectors
     0.000000000  3.159000071  3.159000071    -0.158277933  0.158277933  0.158277933
     3.159000071  0.000000000  3.159000071     0.158277933 -0.158277933  0.158277933
     3.159000071  3.159000071  0.000000000     0.158277933  0.158277933 -0.158277933

  length of vectors
     4.467500743  4.467500743  4.467500743     0.274145421  0.274145421  0.274145421


 
 k-points in units of 2pi/SCALE and weight: K-Points                                
   0.00000000  0.00000000  0.00000000       0.250
   0.07913897  0.07913897  0.07913897       0.250
   0.07913897  0.15827793  0.00000000       0.250
   0.00000000  0.15827793  0.00000000       0.250
 
 k-points in reciprocal lattice and weights: K-Points                                
   0.00000000  0.00000000  0.00000000       0.250
   0.50000000  0.50000000  0.50000000       0.250
   0.50000000  0.25000000  0.75000000       0.250
   0.50000000  0.00000000  0.50000000       0.250
 
 position of ions in fractional coordinates (direct lattice) 
   0.00000000  0.00000000  0.00000000
   0.50000000  0.50000000  0.50000000
 
 position of ions in cartesian coordinates  (Angst):
   0.00000000  0.00000000  0.00000000
   3.15900007  3.15900007  3.15900007
 
 Euler angles ALPHA=     0.0000000  BETA=     0.0000000

 transformation matrix from SAXIS to cartesian coordinates
 ---------------------------------------------------------
     1.0000000 m_x     0.0000000 m_y     0.0000000 m_z
     0.0000000 m_x     1.0000000 m_y     0.0000000 m_z
     0.0000000 m_x     0.0000000 m_y     1.0000000 m_z

 transformation matrix from cartesian coordinates to SAXIS
 ---------------------------------------------------------
     1.0000000 m_x     0.0000000 m_y     0.0000000 m_z
     0.0000000 m_x     1.0000000 m_y     0.0000000 m_z
     0.0000000 m_x     0.0000000 m_y     1.0000000 m_z




--------------------------------------------------------------------------------------------------------


 k-point  1 :   0.0000 0.0000 0.0000  plane waves:    1450
 k-point  2 :   0.5000 0.5000 0.5000  plane waves:    1508
 k-point  3 :   0.5000 0.2500 0.7500  plane waves:    1488
 k-point  4 :   0.5000 0.0000 0.5000  plane waves:    1480

 maximum and minimum number of plane-waves per node :       270      226

 maximum number of plane-waves:      1508
 maximum index in each direction: 
   IXMAX=    6   IYMAX=    6   IZMAX=    6
   IXMIN=   -6   IYMIN=   -6   IZMIN=   -7

 NGX is ok and might be reduce to  26
 NGY is ok and might be reduce to  26
 NGZ is ok and might be reduce to  28

 real space projection operators:
  total allocation   :        829.51 KBytes
  max/ min on nodes  :        155.51        106.62


 parallel 3D FFT for wavefunctions:
    minimum data exchange during FFTs selected (reduces bandwidth)
 parallel 3D FFT for charge:
    minimum data exchange during FFTs selected (reduces bandwidth)


 total amount of memory used by VASP on root node    32136. kBytes
========================================================================

   base      :      30000. kBytes
   nonlr-proj:        313. kBytes
   fftplans  :        360. kBytes
   grid      :       1269. kBytes
   one-center:         62. kBytes
   wavefun   :        132. kBytes
 
 initial charge density was supplied:
 number of electron      19.9999914 magnetization       0.0000000      0.0000000     -0.0000000
 keeping initial charge density in first step


--------------------------------------------------------------------------------------------------------


 Maximum index for non-local projection operator          704
 Maximum index for augmentation-charges          378 (set IRDMAX)


--------------------------------------------------------------------------------------------------------


 First call to EWALD:  gamma=   0.445
 Maximum number of real-space cells 3x 3x 3
 Maximum number of reciprocal cells 3x 3x 3

 FEWALD executed in parallel
    FEWALD:  cpu time    0.00: real time    0.00


----------------------------------------- Iteration    1(   1)  ---------------------------------------


    POTLOK:  cpu time    0.01: real time    0.02
    SETDIJ:  cpu time    0.01: real time    0.01
     EDDAV:  cpu time    0.08: real time    0.10
       DOS:  cpu time    0.00: real time    0.00
    --------------------------------------------
      LOOP:  cpu time    0.11: real time    0.13

 eigenvalue-minimisations  :   224
 total energy-change (2. order) : 0.1335228E+03  (-0.6985449E+03)
 number of electron      19.9999914 magnetization       0.0000000      0.0000000     -0.0000000
 augmentation part       19.9999914 magnetization       0.0000000      0.0000000     -0.0000000

 Free energy of the ion-electron system (eV)
  ---------------------------------------------------
  alpha Z        PSCENC =        26.74713621
  Ewald energy   TEWEN  =     -1420.79165657
  -1/2 Hartree   DENC   =      -624.19823432
  -exchange  EXHF       =         0.00000000
  -V(xc)+E(xc)   XCENC  =        28.85110192
  PAW double counting   =      2250.81284417    -2249.90745952
  entropy T*S    EENTRO =        -0.00061400
  eigenvalues    EBANDS =         5.66439991
  atomic energy  EATOM  =      2116.34525819
  ---------------------------------------------------
  free energy    TOTEN  =       133.52277600 eV

  energy without entropy =      133.52338999  energy(sigma->0) =      133.52308300


--------------------------------------------------------------------------------------------------------




----------------------------------------- Iteration    1(   2)  ---------------------------------------


     EDDAV:  cpu time    0.08: real time    0.08
       DOS:  cpu time    0.00: real time    0.00
    --------------------------------------------
      LOOP:  cpu time    0.08: real time    0.08

 eigenvalue-minimisations  :   240
 total energy-change (2. order) :-0.1252081E+03  (-0.1217690E+03)
 number of electron      19.9999914 magnetization       0.0000000      0.0000000     -0.0000000
 augmentation part       19.9999914 magnetization       0.0000000      0.0000000     -0.0000000

 Free energy of the ion-electron system (eV)
  ---------------------------------------------------
  alpha Z        PSCENC =        26.74713621
  Ewald energy   TEWEN  =     -1420.79165657
  -1/2 Hartree   DENC   =      -624.19823432
  -exchange  EXHF       =         0.00000000
  -V(xc)+E(xc)   XCENC  =        28.85110192
  PAW double counting   =      2250.81284417    -2249.90745952
  entropy T*S    EENTRO =        -0.03853520
  eigenvalues    EBANDS =      -119.50576893
  atomic energy  EATOM  =      2116.34525819
  ---------------------------------------------------
  free energy    TOTEN  =         8.31468596 eV

  energy without entropy =        8.35322115  energy(sigma->0) =        8.33395356


--------------------------------------------------------------------------------------------------------




----------------------------------------- Iteration    1(   3)  ---------------------------------------


     EDDAV:  cpu time    0.08: real time    0.08
       DOS:  cpu time    0.00: real time    0.00
    --------------------------------------------
      LOOP:  cpu time    0.08: real time    0.08

 eigenvalue-minimisations  :   268
 total energy-change (2. order) :-0.1473748E+02  (-0.1404482E+02)
 number of electron      19.9999914 magnetization       0.0000000      0.0000000     -0.0000000
 augmentation part       19.9999914 magnetization       0.0000000      0.0000000     -0.0000000

 Free energy of the ion-electron system (eV)
  ---------------------------------------------------
  alpha Z        PSCENC =        26.74713621
  Ewald energy   TEWEN  =     -1420.79165657
  -1/2 Hartree   DENC   =      -624.19823432
  -exchange  EXHF       =         0.00000000
  -V(xc)+E(xc)   XCENC  =        28.85110192
  PAW double counting   =      2250.81284417    -2249.90745952
  entropy T*S    EENTRO =        -0.03689558
  eigenvalues    EBANDS =      -134.24489067
  atomic energy  EATOM  =      2116.34525819
  ---------------------------------------------------
  free energy    TOTEN  =        -6.42279617 eV

  energy without entropy =       -6.38590059  energy(sigma->0) =       -6.40434838


--------------------------------------------------------------------------------------------------------




----------------------------------------- Iteration    1(   4)  ---------------------------------------


     EDDAV:  cpu time    0.08: real time    0.08
       DOS:  cpu time    0.00: real time    0.00
    --------------------------------------------
      LOOP:  cpu time    0.09: real time    0.09

 eigenvalue-minimisations  :   272
 total energy-change (2. order) :-0.5186993E+00  (-0.5149638E+00)
 number of electron      19.9999914 magnetization       0.0000000      0.0000000     -0.0000000
 augmentation part       19.9999914 magnetization       0.0000000      0.0000000     -0.0000000

 Free energy of the ion-electron system (eV)
  ---------------------------------------------------
  alpha Z        PSCENC =        26.74713621
  Ewald energy   TEWEN  =     -1420.79165657
  -1/2 Hartree   DENC   =      -624.19823432
  -exchange  EXHF       =         0.00000000
  -V(xc)+E(xc)   XCENC  =        28.85110192
  PAW double counting   =      2250.81284417    -2249.90745952
  entropy T*S    EENTRO =        -0.04271222
  eigenvalues    EBANDS =      -134.75777334
  atomic energy  EATOM  =      2116.34525819
  ---------------------------------------------------
  free energy    TOTEN  =        -6.94149548 eV

  energy without entropy =       -6.89878326  energy(sigma->0) =       -6.92013937


--------------------------------------------------------------------------------------------------------




----------------------------------------- Iteration    1(   5)  ---------------------------------------


     EDDAV:  cpu time    0.10: real time    0.10
       DOS:  cpu time    0.00: real time    0.00
 


 total charge     
 
# of ion     s       p       d       tot
----------------------------------------
  1        1.315   0.733   9.965  12.013
  2        1.427   2.077   0.020   3.525
------------------------------------------------
tot        2.742   2.810   9.986  15.538
 


 magnetization (x)
 
# of ion     s       p       d       tot
----------------------------------------
  1       -0.000   0.000  -0.000  -0.000
  2        0.000   0.000  -0.000   0.000
------------------------------------------------
tot       -0.000   0.000  -0.000  -0.000
 


 magnetization (y)
 
# of ion     s       p       d       tot
----------------------------------------
  1        0.000   0.000  -0.000   0.000
  2       -0.000   0.000  -0.000  -0.000
------------------------------------------------
tot       -0.000   0.000  -0.000   0.000
 


 magnetization (z)
 
# of ion     s       p       d       tot
----------------------------------------
  1       -0.000  -0.000  -0.000  -0.000
  2       -0.000  -0.000  -0.000  -0.000
------------------------------------------------
tot       -0.000  -0.000  -0.000  -0.000
 
    --------------------------------------------
      LOOP:  cpu time    0.10: real time    0.10

 eigenvalue-minimisations  :   340
 total energy-change (2. order) :-0.2021529E-01  (-0.2021136E-01)
 number of electron      19.9999914 magnetization       0.0000000      0.0000000     -0.0000000
 augmentation part       19.9999914 magnetization       0.0000000      0.0000000     -0.0000000

 Free energy of the ion-electron system (eV)
  ---------------------------------------------------
  alpha Z        PSCENC =        26.74713621
  Ewald energy   TEWEN  =     -1420.79165657
  -1/2 Hartree   DENC   =      -624.19823432
  -exchange  EXHF       =         0.00000000
  -V(xc)+E(xc)   XCENC  =        28.85110192
  PAW double counting   =      2250.81284417    -2249.90745952
  entropy T*S    EENTRO =        -0.04284538
  eigenvalues    EBANDS =      -134.77785548
  atomic energy  EATOM  =      2116.34525819
  ---------------------------------------------------
  free energy    TOTEN  =        -6.96171077 eV

  energy without entropy =       -6.91886540  energy(sigma->0) =       -6.94028808


--------------------------------------------------------------------------------------------------------




----------------------------------------- Iteration    1(   6)  ---------------------------------------


     EDDAV:  cpu time    0.08: real time    0.08
       DOS:  cpu time    0.00: real time    0.00
    --------------------------------------------
      LOOP:  cpu time    0.08: real time    0.08

 eigenvalue-minimisations  :   256
 total energy-change (2. order) :-0.1698347E-03  (-0.1698283E-03)
 number of electron      19.9999914 magnetization       0.0000000      0.0000000     -0.0000000
 augmentation part       19.9999914 magnetization       0.0000000      0.0000000     -0.0000000

 Free energy of the ion-electron system (eV)
  ---------------------------------------------------
  alpha Z        PSCENC =        26.74713621
  Ewald energy   TEWEN  =     -1420.79165657
  -1/2 Hartree   DENC   =      -624.19823432
  -exchange  EXHF       =         0.00000000
  -V(xc)+E(xc)   XCENC  =        28.85110192
  PAW double counting   =      2250.81284417    -2249.90745952
  entropy T*S    EENTRO =        -0.04285168
  eigenvalues    EBANDS =      -134.77801901
  atomic energy  EATOM  =      2116.34525819
  ---------------------------------------------------
  free energy    TOTEN  =        -6.96188061 eV

  energy without entropy =       -6.91902893  energy(sigma->0) =       -6.94045477


--------------------------------------------------------------------------------------------------------




----------------------------------------- Iteration    1(   7)  ---------------------------------------


     EDDAV:  cpu time    0.10: real time    0.10
       DOS:  cpu time    0.00: real time    0.00
    --------------------------------------------
      LOOP:  cpu time    0.10: real time    0.10

 eigenvalue-minimisations  :   344
 total energy-change (2. order) :-0.6287187E-05  (-0.6287346E-05)
 number of electron      19.9999914 magnetization       0.0000000      0.0000000     -0.0000000
 augmentation part       19.9999914 magnetization       0.0000000      0.0000000     -0.0000000

 Free energy of the ion-electron system (eV)
  ---------------------------------------------------
  alpha Z        PSCENC =        26.74713621
  Ewald energy   TEWEN  =     -1420.79165657
  -1/2 Hartree   DENC   =      -624.19823432
  -exchange  EXHF       =         0.00000000
  -V(xc)+E(xc)   XCENC  =        28.85110192
  PAW double counting   =      2250.81284417    -2249.90745952
  entropy T*S    EENTRO =        -0.04285171
  eigenvalues    EBANDS =      -134.77802527
  atomic energy  EATOM  =      2116.34525819
  ---------------------------------------------------
  free energy    TOTEN  =        -6.96188689 eV

  energy without entropy =       -6.91903519  energy(sigma->0) =       -6.94046104


--------------------------------------------------------------------------------------------------------




----------------------------------------- Iteration    1(   8)  ---------------------------------------


     EDDAV:  cpu time    0.09: real time    0.09
       DOS:  cpu time    0.00: real time    0.00
    --------------------------------------------
      LOOP:  cpu time    0.09: real time    0.09

 eigenvalue-minimisations  :   212
 total energy-change (2. order) :-0.5626816E-07  (-0.5568616E-07)
 number of electron      19.9999914 magnetization       0.0000000      0.0000000     -0.0000000
 augmentation part       19.9999914 magnetization       0.0000000      0.0000000     -0.0000000

 Free energy of the ion-electron system (eV)
  ---------------------------------------------------
  alpha Z        PSCENC =        26.74713621
  Ewald energy   TEWEN  =     -1420.79165657
  -1/2 Hartree   DENC   =      -624.19823432
  -exchange  EXHF       =         0.00000000
  -V(xc)+E(xc)   XCENC  =        28.85110192
  PAW double counting   =      2250.81284417    -2249.90745952
  entropy T*S    EENTRO =        -0.04285171
  eigenvalues    EBANDS =      -134.77802532
  atomic energy  EATOM  =      2116.34525819
  ---------------------------------------------------
  free energy    TOTEN  =        -6.96188695 eV

  energy without entropy =       -6.91903524  energy(sigma->0) =       -6.94046110


--------------------------------------------------------------------------------------------------------




 average (electrostatic) potential at core
  the test charge radii are     1.0894  1.1897
  (the norm of the test charge is              1.0000)
       1-100.6359       2 -87.8542
 
 
 
 E-fermi :   6.8677     XC(G=0):  -9.4591     alpha+bet :-11.4178


 k-point   1 :       0.0000    0.0000    0.0000
  band No.  band energies     occupation 
      1     -15.6193      1.00000
      2     -15.6193      1.00000
      3     -15.6193      1.00000
      4     -15.6193      1.00000
      5     -14.5835      1.00000
      6     -14.5835      1.00000
      7     -14.5835      1.00000
      8     -14.5835      1.00000
      9     -14.5806      1.00000
     10     -14.5806      1.00000
     11      -5.8828      1.00000
     12      -5.8828      1.00000
     13       2.1582      1.00000
     14       2.1582      1.00000
     15       4.1821      1.00000
     16       4.1821      1.00000
     17       4.9997      1.00000
     18       4.9997      1.00000
     19       4.9997      1.00000
     20       4.9997      1.00000
     21       9.6355      0.00000
     22       9.6355      0.00000
     23      10.4603      0.00000
     24      10.4603      0.00000
     25      10.4603      0.00000
     26      10.4603      0.00000
     27      11.6033      0.00000
     28      11.6048      0.00000

 k-point   2 :       0.5000    0.5000    0.5000
  band No.  band energies     occupation 
      1     -15.6205      1.00000
      2     -15.6205      1.00000
      3     -15.6167      1.00000
      4     -15.6167      1.00000
      5     -14.5888      1.00000
      6     -14.5888      1.00000
      7     -14.5808      1.00000
      8     -14.5808      1.00000
      9     -14.5760      1.00000
     10     -14.5760      1.00000
     11      -4.6205      1.00000
     12      -4.6205      1.00000
     13      -1.4376      1.00000
     14      -1.4376      1.00000
     15       4.7506      1.00000
     16       4.7506      1.00000
     17       5.3242      1.00000
     18       5.3242      1.00000
     19       6.7553      0.78671
     20       6.7553      0.78671
     21       6.9871      0.19930
     22       6.9871      0.19930
     23       7.1788      0.01391
     24       7.1788      0.01391
     25       7.4010      0.00008
     26       7.4010      0.00008
     27      14.6159      0.00000
     28      14.6163      0.00000

 k-point   3 :       0.5000    0.2500    0.7500
  band No.  band energies     occupation 
      1     -15.6191      1.00000
      2     -15.6191      1.00000
      3     -15.6176      1.00000
      4     -15.6176      1.00000
      5     -14.5883      1.00000
      6     -14.5883      1.00000
      7     -14.5825      1.00000
      8     -14.5825      1.00000
      9     -14.5741      1.00000
     10     -14.5741      1.00000
     11      -4.2373      1.00000
     12      -4.2373      1.00000
     13      -0.4870      1.00000
     14      -0.4870      1.00000
     15       1.9730      1.00000
     16       1.9730      1.00000
     17       2.1441      1.00000
     18       2.1441      1.00000
     19       6.0282      1.00000
     20       6.0282      1.00000
     21       7.6940      0.00000
     22       7.6940      0.00000
     23      11.3666      0.00000
     24      11.3666      0.00000
     25      11.5810      0.00000
     26      11.5810      0.00000
     27      12.8310      0.00000
     28      12.8402      0.00000

 k-point   4 :       0.5000    0.0000    0.5000
  band No.  band energies     occupation 
      1     -15.6196      1.00000
      2     -15.6196      1.00000
      3     -15.6172      1.00000
      4     -15.6172      1.00000
      5     -14.5902      1.00000
      6     -14.5902      1.00000
      7     -14.5830      1.00000
      8     -14.5830      1.00000
      9     -14.5718      1.00000
     10     -14.5718      1.00000
     11      -4.3248      1.00000
     12      -4.3248      1.00000
     13       0.4009      1.00000
     14       0.4009      1.00000
     15       1.3124      1.00000
     16       1.3124      1.00000
     17       2.9252      1.00000
     18       2.9252      1.00000
     19       3.3609      1.00000
     20       3.3609      1.00000
     21       9.0655      0.00000
     22       9.0655      0.00000
     23      11.3737      0.00000
     24      11.3737      0.00000
     25      12.0966      0.00000
     26      12.0966      0.00000
     27      13.1892      0.00000
     28      13.1893      0.00000


--------------------------------------------------------------------------------------------------------


 soft charge-density along one line, spin component           1
         0         1         2         3         4         5         6         7         8         9
 total charge-density along one line
 
 soft charge-density along one line, spin component           2
         0         1         2         3         4         5         6         7         8         9
 total charge-density along one line
 
 soft charge-density along one line, spin component           3
         0         1         2         3         4         5         6         7         8         9
 total charge-density along one line
 
 soft charge-density along one line, spin component           4
         0         1         2         3         4         5         6         7         8         9
 total charge-density along one line
 
 pseudopotential strength for first ion, spin component:           1
-16.717   0.000  -0.000   0.000   0.000   0.000  -0.000   0.000   0.000   0.415   3.048   0.000   0.000   0.000  -0.000   0.000
 -0.000   0.000 -16.717   0.000  -0.000   0.000  -0.000   0.207   0.000   0.000   0.000   0.000   3.048   0.000   0.000   0.000
  0.000   0.000  -0.000   0.000 -16.709   0.000  -0.000   0.000  -0.000   0.000  -0.000   0.000   0.000   0.000   3.044   0.000
 -0.000   0.000  -0.000  -0.207  -0.000   0.000 -16.717   0.000  -0.000   0.000   0.000   0.000   0.000   0.126   0.000   0.000
  0.000  -0.415   0.000   0.000  -0.000   0.000  -0.000   0.000 -16.709   0.000  -0.000   0.252  -0.000   0.000   0.000   0.000
  3.048   0.000   0.000   0.000  -0.000   0.000   0.000   0.000  -0.000  -0.252   4.394   0.000  -0.000   0.000   0.000   0.000
  0.000   0.000   3.048   0.000   0.000   0.000   0.000  -0.126  -0.000   0.000  -0.000   0.000   4.394   0.000  -0.000   0.000
 -0.000   0.000   0.000   0.000   3.044   0.000   0.000   0.000   0.000   0.000   0.000   0.000  -0.000   0.000   4.395   0.000
  0.000   0.000   0.000   0.126   0.000   0.000   3.048   0.000   0.000   0.000  -0.000   0.000  -0.000  -0.077  -0.000   0.000
 -0.000   0.252  -0.000   0.000   0.000   0.000   0.000   0.000   3.044   0.000  -0.000  -0.154   0.000   0.000  -0.000   0.000
 -0.000   0.000  -0.000   0.000   0.000   0.000  -0.000   0.000   0.000   0.000   0.000   0.000   0.000   0.000   0.000   0.000
  0.000   0.000   0.000   0.000   0.000   0.000   0.000   0.000  -0.000   0.000  -0.000   0.000  -0.000   0.000  -0.000   0.000
  0.000   0.000   0.000   0.000  -0.000   0.000  -0.000   0.000  -0.000   0.000   0.000   0.000   0.000   0.000   0.000   0.000
 -0.000   0.000   0.000   0.000   0.000   0.000   0.000   0.000  -0.000   0.000   0.000   0.000   0.000   0.000  -0.000   0.000
  0.000   0.000  -0.000   0.000  -0.000   0.000   0.000   0.000   0.000   0.000   0.000   0.000   0.000   0.000   0.000   0.000
  0.000   0.000   0.000   0.000  -0.000   0.000  -0.000   0.000  -0.000   0.000   0.000   0.000   0.000   0.000   0.000   0.000
 -0.000   0.000   0.000   0.000   0.000   0.000   0.000   0.000  -0.000   0.000   0.000   0.000   0.000   0.000  -0.000   0.000
  0.000   0.000  -0.000   0.000  -0.000   0.000   0.000   0.000   0.000   0.000   0.000   0.000   0.000   0.000   0.000   0.000
 pseudopotential strength for first ion, spin component:           2
  0.000   0.000   0.207  -0.000  -0.000  -0.000  -0.000  -0.207  -0.000   0.000  -0.000  -0.000  -0.126   0.000   0.000  -0.000
 -0.207  -0.000  -0.000  -0.000  -0.000  -0.359  -0.000  -0.000  -0.000  -0.207   0.126   0.000   0.000   0.000   0.000   0.219
 -0.000  -0.000  -0.000   0.359  -0.000  -0.000  -0.359  -0.000   0.000  -0.000   0.000  -0.000   0.000  -0.219   0.000   0.000
 -0.000   0.207  -0.000  -0.000   0.359  -0.000  -0.000  -0.000  -0.207   0.000   0.000  -0.126   0.000   0.000  -0.219   0.000
 -0.000   0.000  -0.000   0.207   0.000  -0.000   0.207   0.000   0.000   0.000   0.000  -0.000   0.000  -0.126  -0.000   0.000
 -0.000  -0.000  -0.126   0.000   0.000  -0.000   0.000   0.126   0.000  -0.000  -0.000  -0.000   0.077  -0.000   0.000   0.000
  0.126   0.000   0.000   0.000   0.000   0.219   0.000   0.000   0.000   0.126  -0.077  -0.000  -0.000  -0.000   0.000  -0.133
  0.000  -0.000   0.000  -0.219   0.000   0.000   0.219   0.000  -0.000   0.000   0.000   0.000   0.000   0.133  -0.000  -0.000
  0.000  -0.126   0.000   0.000  -0.219   0.000   0.000   0.000   0.126  -0.000  -0.000   0.077   0.000   0.000   0.133   0.000
  0.000  -0.000   0.000  -0.126  -0.000   0.000  -0.126  -0.000  -0.000  -0.000   0.000  -0.000   0.000   0.077   0.000  -0.000
 -0.000  -0.000  -0.000  -0.000  -0.000  -0.000  -0.000  -0.000  -0.000   0.000   0.000   0.000   0.000   0.000   0.000   0.000
  0.000   0.000   0.000   0.000   0.000   0.000   0.000   0.000   0.000  -0.000  -0.000  -0.000  -0.000  -0.000  -0.000  -0.000
  0.000  -0.000   0.000  -0.000  -0.000   0.000  -0.000   0.000  -0.000   0.000   0.000  -0.000   0.000  -0.000   0.000  -0.000
 -0.000   0.000   0.000  -0.000   0.000  -0.000   0.000  -0.000   0.000   0.000   0.000  -0.000   0.000  -0.000  -0.000   0.000
  0.000  -0.000  -0.000   0.000  -0.000   0.000   0.000  -0.000   0.000  -0.000   0.000  -0.000   0.000  -0.000   0.000  -0.000
  0.000  -0.000   0.000  -0.000  -0.000   0.000  -0.000   0.000  -0.000   0.000   0.000  -0.000   0.000  -0.000   0.000  -0.000
 -0.000   0.000   0.000  -0.000   0.000  -0.000   0.000  -0.000   0.000   0.000   0.000  -0.000   0.000  -0.000  -0.000   0.000
  0.000  -0.000  -0.000   0.000  -0.000   0.000   0.000  -0.000   0.000  -0.000   0.000  -0.000   0.000  -0.000   0.000  -0.000
 pseudopotential strength for first ion, spin component:           3
  0.000  -0.000  -0.207   0.000  -0.000   0.000  -0.000  -0.207  -0.000  -0.000  -0.000   0.000   0.126  -0.000   0.000   0.000
  0.207   0.000  -0.000   0.000  -0.000  -0.359  -0.000   0.000  -0.000  -0.207  -0.126  -0.000   0.000  -0.000   0.000   0.219
 -0.000   0.000  -0.000   0.359  -0.000   0.000   0.359   0.000   0.000   0.000   0.000   0.000   0.000  -0.219   0.000  -0.000
 -0.000   0.207  -0.000   0.000  -0.359   0.000  -0.000   0.000   0.207  -0.000   0.000  -0.126   0.000  -0.000   0.219  -0.000
 -0.000  -0.000  -0.000   0.207   0.000   0.000  -0.207  -0.000   0.000  -0.000   0.000   0.000   0.000  -0.126  -0.000  -0.000
 -0.000   0.000   0.126  -0.000   0.000   0.000   0.000   0.126   0.000   0.000  -0.000   0.000  -0.077   0.000   0.000  -0.000
 -0.126  -0.000   0.000  -0.000   0.000   0.219   0.000  -0.000   0.000   0.126   0.077   0.000  -0.000   0.000   0.000  -0.133
  0.000   0.000   0.000  -0.219   0.000  -0.000  -0.219  -0.000  -0.000  -0.000   0.000  -0.000   0.000   0.133  -0.000   0.000
  0.000  -0.126   0.000  -0.000   0.219  -0.000   0.000  -0.000  -0.126   0.000  -0.000   0.077   0.000  -0.000  -0.133  -0.000
  0.000   0.000   0.000  -0.126  -0.000  -0.000   0.126   0.000  -0.000   0.000   0.000   0.000   0.000   0.077   0.000   0.000
 -0.000   0.000  -0.000   0.000  -0.000   0.000  -0.000   0.000  -0.000  -0.000   0.000  -0.000   0.000  -0.000   0.000  -0.000
  0.000  -0.000   0.000  -0.000   0.000  -0.000   0.000  -0.000   0.000   0.000  -0.000   0.000  -0.000   0.000  -0.000   0.000
  0.000   0.000   0.000   0.000  -0.000  -0.000  -0.000  -0.000  -0.000  -0.000   0.000   0.000   0.000   0.000   0.000   0.000
 -0.000  -0.000   0.000   0.000   0.000   0.000   0.000   0.000   0.000  -0.000   0.000   0.000   0.000   0.000  -0.000  -0.000
  0.000   0.000  -0.000  -0.000  -0.000  -0.000   0.000   0.000   0.000   0.000   0.000   0.000   0.000   0.000   0.000   0.000
  0.000   0.000   0.000   0.000  -0.000  -0.000  -0.000  -0.000  -0.000  -0.000   0.000   0.000   0.000   0.000   0.000   0.000
 -0.000  -0.000   0.000   0.000   0.000   0.000   0.000   0.000   0.000  -0.000   0.000   0.000   0.000   0.000  -0.000  -0.000
  0.000   0.000  -0.000  -0.000  -0.000  -0.000   0.000   0.000   0.000   0.000   0.000   0.000   0.000   0.000   0.000   0.000
 pseudopotential strength for first ion, spin component:           4
-16.717   0.000  -0.000   0.000   0.000   0.000  -0.000   0.000  -0.000  -0.415   3.048   0.000   0.000   0.000  -0.000   0.000
 -0.000   0.000 -16.717   0.000  -0.000   0.000  -0.000  -0.207   0.000   0.000   0.000   0.000   3.048   0.000   0.000   0.000
  0.000   0.000  -0.000   0.000 -16.709   0.000  -0.000   0.000   0.000   0.000  -0.000   0.000   0.000   0.000   3.044   0.000
 -0.000   0.000  -0.000   0.207  -0.000   0.000 -16.717   0.000  -0.000   0.000   0.000   0.000   0.000  -0.126   0.000   0.000
 -0.000   0.415   0.000   0.000   0.000   0.000  -0.000   0.000 -16.709   0.000   0.000  -0.252  -0.000   0.000  -0.000   0.000
  3.048   0.000   0.000   0.000  -0.000   0.000   0.000   0.000   0.000   0.252   4.394   0.000  -0.000   0.000   0.000   0.000
  0.000   0.000   3.048   0.000   0.000   0.000   0.000   0.126  -0.000   0.000  -0.000   0.000   4.394   0.000  -0.000   0.000
 -0.000   0.000   0.000   0.000   3.044   0.000   0.000   0.000  -0.000   0.000   0.000   0.000  -0.000   0.000   4.395   0.000
  0.000   0.000   0.000  -0.126   0.000   0.000   3.048   0.000   0.000   0.000  -0.000   0.000  -0.000   0.077  -0.000   0.000
  0.000  -0.252  -0.000   0.000  -0.000   0.000   0.000   0.000   3.044   0.000   0.000   0.154   0.000   0.000   0.000   0.000
 -0.000   0.000  -0.000   0.000   0.000   0.000  -0.000   0.000  -0.000   0.000   0.000   0.000   0.000   0.000   0.000   0.000
  0.000   0.000   0.000   0.000   0.000   0.000   0.000   0.000   0.000   0.000  -0.000   0.000  -0.000   0.000  -0.000   0.000
 -0.000   0.000  -0.000   0.000   0.000   0.000   0.000   0.000   0.000   0.000  -0.000   0.000  -0.000   0.000  -0.000   0.000
  0.000   0.000  -0.000   0.000  -0.000   0.000  -0.000   0.000  -0.000   0.000  -0.000   0.000  -0.000   0.000   0.000   0.000
 -0.000   0.000   0.000   0.000   0.000   0.000  -0.000   0.000  -0.000   0.000  -0.000   0.000  -0.000   0.000  -0.000   0.000
 -0.000   0.000  -0.000   0.000   0.000   0.000   0.000   0.000   0.000   0.000  -0.000   0.000  -0.000   0.000  -0.000   0.000
  0.000   0.000  -0.000   0.000  -0.000   0.000  -0.000   0.000  -0.000   0.000  -0.000   0.000  -0.000   0.000   0.000   0.000
 -0.000   0.000   0.000   0.000   0.000   0.000  -0.000   0.000  -0.000   0.000  -0.000   0.000  -0.000   0.000  -0.000   0.000
 total augmentation occupancy for first ion, spin component:           1
  2.000   0.000   0.000   0.000   0.000   0.000   0.000   0.000   0.000   0.000   0.000   0.000   0.000   0.000   0.000   0.000
  0.000   2.000   0.000   0.000   0.000   0.000   0.000   0.000   0.000   0.000   0.000   0.000   0.000   0.000   0.000   0.000
  0.000   0.000   2.000   0.000   0.000   0.000   0.000   0.000   0.000   0.000   0.000   0.000   0.000   0.000   0.000   0.000
  0.000   0.000   0.000   2.000   0.000   0.000   0.000   0.000   0.000   0.000   0.000   0.000   0.000   0.000   0.000   0.000
  0.000   0.000   0.000   0.000   2.000   0.000   0.000   0.000   0.000   0.000   0.000   0.000   0.000   0.000   0.000   0.000
  0.000   0.000   0.000   0.000   0.000   0.000   0.000   0.000   0.000   0.000   0.000   0.000   0.000   0.000   0.000   0.000
  0.000   0.000   0.000   0.000   0.000   0.000   0.000   0.000   0.000   0.000   0.000   0.000   0.000   0.000   0.000   0.000
  0.000   0.000   0.000   0.000   0.000   0.000   0.000   0.000   0.000   0.000   0.000   0.000   0.000   0.000   0.000   0.000
  0.000   0.000   0.000   0.000   0.000   0.000   0.000   0.000   0.000   0.000   0.000   0.000   0.000   0.000   0.000   0.000
  0.000   0.000   0.000   0.000   0.000   0.000   0.000   0.000   0.000   0.000   0.000   0.000   0.000   0.000   0.000   0.000
  0.000   0.000   0.000   0.000   0.000   0.000   0.000   0.000   0.000   0.000   2.000   0.000   0.000   0.000   0.000   0.000
  0.000   0.000   0.000   0.000   0.000   0.000   0.000   0.000   0.000   0.000   0.000   0.000   0.000   0.000   0.000   0.000
  0.000   0.000   0.000   0.000   0.000   0.000   0.000   0.000   0.000   0.000   0.000   0.000   0.667   0.000   0.000   0.000
  0.000   0.000   0.000   0.000   0.000   0.000   0.000   0.000   0.000   0.000   0.000   0.000   0.000   0.667   0.000   0.000
  0.000   0.000   0.000   0.000   0.000   0.000   0.000   0.000   0.000   0.000   0.000   0.000   0.000   0.000   0.667   0.000
  0.000   0.000   0.000   0.000   0.000   0.000   0.000   0.000   0.000   0.000   0.000   0.000   0.000   0.000   0.000   0.000
  0.000   0.000   0.000   0.000   0.000   0.000   0.000   0.000   0.000   0.000   0.000   0.000   0.000   0.000   0.000   0.000
  0.000   0.000   0.000   0.000   0.000   0.000   0.000   0.000   0.000   0.000   0.000   0.000   0.000   0.000   0.000   0.000
 total augmentation occupancy for first ion, spin component:           2
  0.000   0.000   0.000   0.000   0.000   0.000   0.000   0.000   0.000   0.000   0.000   0.000   0.000   0.000   0.000   0.000
  0.000   0.000   0.000   0.000   0.000   0.000   0.000   0.000   0.000   0.000   0.000   0.000   0.000   0.000   0.000   0.000
  0.000   0.000   0.000   0.000   0.000   0.000   0.000   0.000   0.000   0.000   0.000   0.000   0.000   0.000   0.000   0.000
  0.000   0.000   0.000   0.000   0.000   0.000   0.000   0.000   0.000   0.000   0.000   0.000   0.000   0.000   0.000   0.000
  0.000   0.000   0.000   0.000   0.000   0.000   0.000   0.000   0.000   0.000   0.000   0.000   0.000   0.000   0.000   0.000
  0.000   0.000   0.000   0.000   0.000   0.000   0.000   0.000   0.000   0.000   0.000   0.000   0.000   0.000   0.000   0.000
  0.000   0.000   0.000   0.000   0.000   0.000   0.000   0.000   0.000   0.000   0.000   0.000   0.000   0.000   0.000   0.000
  0.000   0.000   0.000   0.000   0.000   0.000   0.000   0.000   0.000   0.000   0.000   0.000   0.000   0.000   0.000   0.000
  0.000   0.000   0.000   0.000   0.000   0.000   0.000   0.000   0.000   0.000   0.000   0.000   0.000   0.000   0.000   0.000
  0.000   0.000   0.000   0.000   0.000   0.000   0.000   0.000   0.000   0.000   0.000   0.000   0.000   0.000   0.000   0.000
  0.000   0.000   0.000   0.000   0.000   0.000   0.000   0.000   0.000   0.000   0.000   0.000   0.000   0.000   0.000   0.000
  0.000   0.000   0.000   0.000   0.000   0.000   0.000   0.000   0.000   0.000   0.000   0.000   0.000   0.000   0.000   0.000
  0.000   0.000   0.000   0.000   0.000   0.000   0.000   0.000   0.000   0.000   0.000   0.000   0.000   0.000   0.000   0.000
  0.000   0.000   0.000   0.000   0.000   0.000   0.000   0.000   0.000   0.000   0.000   0.000   0.000   0.000   0.000   0.000
  0.000   0.000   0.000   0.000   0.000   0.000   0.000   0.000   0.000   0.000   0.000   0.000   0.000   0.000   0.000   0.000
  0.000   0.000   0.000   0.000   0.000   0.000   0.000   0.000   0.000   0.000   0.000   0.000   0.000   0.000   0.000   0.000
  0.000   0.000   0.000   0.000   0.000   0.000   0.000   0.000   0.000   0.000   0.000   0.000   0.000   0.000   0.000   0.000
  0.000   0.000   0.000   0.000   0.000   0.000   0.000   0.000   0.000   0.000   0.000   0.000   0.000   0.000   0.000   0.000
 total augmentation occupancy for first ion, spin component:           3
  0.000   0.000   0.000   0.000   0.000   0.000   0.000   0.000   0.000   0.000   0.000   0.000   0.000   0.000   0.000   0.000
  0.000   0.000   0.000   0.000   0.000   0.000   0.000   0.000   0.000   0.000   0.000   0.000   0.000   0.000   0.000   0.000
  0.000   0.000   0.000   0.000   0.000   0.000   0.000   0.000   0.000   0.000   0.000   0.000   0.000   0.000   0.000   0.000
  0.000   0.000   0.000   0.000   0.000   0.000   0.000   0.000   0.000   0.000   0.000   0.000   0.000   0.000   0.000   0.000
  0.000   0.000   0.000   0.000   0.000   0.000   0.000   0.000   0.000   0.000   0.000   0.000   0.000   0.000   0.000   0.000
  0.000   0.000   0.000   0.000   0.000   0.000   0.000   0.000   0.000   0.000   0.000   0.000   0.000   0.000   0.000   0.000
  0.000   0.000   0.000   0.000   0.000   0.000   0.000   0.000   0.000   0.000   0.000   0.000   0.000   0.000   0.000   0.000
  0.000   0.000   0.000   0.000   0.000   0.000   0.000   0.000   0.000   0.000   0.000   0.000   0.000   0.000   0.000   0.000
  0.000   0.000   0.000   0.000   0.000   0.000   0.000   0.000   0.000   0.000   0.000   0.000   0.000   0.000   0.000   0.000
  0.000   0.000   0.000   0.000   0.000   0.000   0.000   0.000   0.000   0.000   0.000   0.000   0.000   0.000   0.000   0.000
  0.000   0.000   0.000   0.000   0.000   0.000   0.000   0.000   0.000   0.000   0.000   0.000   0.000   0.000   0.000   0.000
  0.000   0.000   0.000   0.000   0.000   0.000   0.000   0.000   0.000   0.000   0.000   0.000   0.000   0.000   0.000   0.000
  0.000   0.000   0.000   0.000   0.000   0.000   0.000   0.000   0.000   0.000   0.000   0.000   0.000   0.000   0.000   0.000
  0.000   0.000   0.000   0.000   0.000   0.000   0.000   0.000   0.000   0.000   0.000   0.000   0.000   0.000   0.000   0.000
  0.000   0.000   0.000   0.000   0.000   0.000   0.000   0.000   0.000   0.000   0.000   0.000   0.000   0.000   0.000   0.000
  0.000   0.000   0.000   0.000   0.000   0.000   0.000   0.000   0.000   0.000   0.000   0.000   0.000   0.000   0.000   0.000
  0.000   0.000   0.000   0.000   0.000   0.000   0.000   0.000   0.000   0.000   0.000   0.000   0.000   0.000   0.000   0.000
  0.000   0.000   0.000   0.000   0.000   0.000   0.000   0.000   0.000   0.000   0.000   0.000   0.000   0.000   0.000   0.000
 total augmentation occupancy for first ion, spin component:           4
  0.000   0.000   0.000   0.000   0.000   0.000   0.000   0.000   0.000   0.000   0.000   0.000   0.000   0.000   0.000   0.000
  0.000   0.000   0.000   0.000   0.000   0.000   0.000   0.000   0.000   0.000   0.000   0.000   0.000   0.000   0.000   0.000
  0.000   0.000   0.000   0.000   0.000   0.000   0.000   0.000   0.000   0.000   0.000   0.000   0.000   0.000   0.000   0.000
  0.000   0.000   0.000   0.000   0.000   0.000   0.000   0.000   0.000   0.000   0.000   0.000   0.000   0.000   0.000   0.000
  0.000   0.000   0.000   0.000   0.000   0.000   0.000   0.000   0.000   0.000   0.000   0.000   0.000   0.000   0.000   0.000
  0.000   0.000   0.000   0.000   0.000   0.000   0.000   0.000   0.000   0.000   0.000   0.000   0.000   0.000   0.000   0.000
  0.000   0.000   0.000   0.000   0.000   0.000   0.000   0.000   0.000   0.000   0.000   0.000   0.000   0.000   0.000   0.000
  0.000   0.000   0.000   0.000   0.000   0.000   0.000   0.000   0.000   0.000   0.000   0.000   0.000   0.000   0.000   0.000
  0.000   0.000   0.000   0.000   0.000   0.000   0.000   0.000   0.000   0.000   0.000   0.000   0.000   0.000   0.000   0.000
  0.000   0.000   0.000   0.000   0.000   0.000   0.000   0.000   0.000   0.000   0.000   0.000   0.000   0.000   0.000   0.000
  0.000   0.000   0.000   0.000   0.000   0.000   0.000   0.000   0.000   0.000   0.000   0.000   0.000   0.000   0.000   0.000
  0.000   0.000   0.000   0.000   0.000   0.000   0.000   0.000   0.000   0.000   0.000   0.000   0.000   0.000   0.000   0.000
  0.000   0.000   0.000   0.000   0.000   0.000   0.000   0.000   0.000   0.000   0.000   0.000   0.000   0.000   0.000   0.000
  0.000   0.000   0.000   0.000   0.000   0.000   0.000   0.000   0.000   0.000   0.000   0.000   0.000   0.000   0.000   0.000
  0.000   0.000   0.000   0.000   0.000   0.000   0.000   0.000   0.000   0.000   0.000   0.000   0.000   0.000   0.000   0.000
  0.000   0.000   0.000   0.000   0.000   0.000   0.000   0.000   0.000   0.000   0.000   0.000   0.000   0.000   0.000   0.000
  0.000   0.000   0.000   0.000   0.000   0.000   0.000   0.000   0.000   0.000   0.000   0.000   0.000   0.000   0.000   0.000
  0.000   0.000   0.000   0.000   0.000   0.000   0.000   0.000   0.000   0.000   0.000   0.000   0.000   0.000   0.000   0.000


------------------------ aborting loop because EDIFF is reached ----------------------------------------


 


 total charge     
 
# of ion     s       p       d       tot
----------------------------------------
  1        1.314   0.733   9.965  12.012
  2        1.427   2.077   0.020   3.524
------------------------------------------------
tot        2.741   2.810   9.985  15.536
 


 magnetization (x)
 
# of ion     s       p       d       tot
----------------------------------------
  1       -0.000   0.000  -0.000  -0.000
  2        0.000  -0.000  -0.000  -0.000
------------------------------------------------
tot       -0.000  -0.000  -0.000  -0.000
 


 magnetization (y)
 
# of ion     s       p       d       tot
----------------------------------------
  1       -0.000   0.000  -0.000  -0.000
  2       -0.000  -0.000   0.000  -0.000
------------------------------------------------
tot       -0.000  -0.000  -0.000  -0.000
 


 magnetization (z)
 
# of ion     s       p       d       tot
----------------------------------------
  1       -0.000   0.000   0.000  -0.000
  2       -0.000  -0.000  -0.000  -0.000
------------------------------------------------
tot       -0.000   0.000   0.000  -0.000
 
    CHARGE:  cpu time    0.04: real time    0.06
    FORLOC:  cpu time    0.00: real time    0.00
    FORNL :  cpu time    0.03: real time    0.05
    STRESS:  cpu time    0.09: real time    0.09
    FORCOR:  cpu time    0.01: real time    0.01
    FORHAR:  cpu time    0.00: real time    0.00

  FORCE on cell =-STRESS in cart. coord.  units (eV):
  Direction    XX          YY          ZZ          XY          YZ          ZX
  --------------------------------------------------------------------------------------
  Alpha Z    26.74714    26.74714    26.74714
  Ewald    -473.59734  -473.59734  -473.59734     0.00000    -0.00000    -0.00000
  Hartree   207.29501   207.29501   207.29501     0.00000     0.00000     0.00000
  E(xc)     -94.34052   -94.34052   -94.34052     0.00002     0.00002     0.00002
  Local    -145.05454  -145.05454  -145.05454     0.00008     0.00008     0.00008
  n-local   184.19001   182.17195   182.67919    -0.69728    -0.69728    -0.69725
  augment   150.77788   150.77788   150.77788    -0.00002    -0.00002    -0.00002
  Kinetic   151.28757   143.03347   146.48558    -2.33102    -2.33106    -2.33106
  Fock        0.00000     0.00000     0.00000     0.00000     0.00000     0.00000
  -------------------------------------------------------------------------------------
  Total       1.77687     1.77687     1.77687    -0.00000    -0.00000    -0.00000
  in kB      45.15319    45.15319    45.15319    -0.00000    -0.00000    -0.00000
  external pressure =       45.15 kB  Pullay stress =        0.00 kB


 VOLUME and BASIS-vectors are now :
 -----------------------------------------------------------------------------
  energy-cutoff  :      301.35
  volume of cell :       63.05
      direct lattice vectors                 reciprocal lattice vectors
     0.000000000  3.159000071  3.159000071    -0.158277933  0.158277933  0.158277933
     3.159000071  0.000000000  3.159000071     0.158277933 -0.158277933  0.158277933
     3.159000071  3.159000071  0.000000000     0.158277933  0.158277933 -0.158277933

  length of vectors
     4.467500743  4.467500743  4.467500743     0.274145421  0.274145421  0.274145421


 FORCES acting on ions
    electron-ion (+dipol)            ewald-force                    non-local-force                 convergence-correction
 -----------------------------------------------------------------------------------------------
   -.155E-13 0.102E-13 0.678E-14   -.503E-14 0.219E-14 -.637E-15   0.000E+00 0.000E+00 0.000E+00   0.717E-13 0.405E-13 -.175E-13
   0.778E-13 0.653E-13 0.651E-13   0.432E-14 -.197E-14 0.273E-14   0.000E+00 0.000E+00 0.000E+00   -.346E-14 -.226E-13 -.211E-13
 -----------------------------------------------------------------------------------------------
   0.623E-13 0.755E-13 0.719E-13   -.713E-15 0.223E-15 0.209E-14   0.000E+00 0.000E+00 0.000E+00   0.682E-13 0.179E-13 -.386E-13
 
 
 POSITION                                       TOTAL-FORCE (eV/Angst)
 -----------------------------------------------------------------------------------
      0.00000      0.00000      0.00000         0.000000      0.000000     -0.000000
      3.15900      3.15900      3.15900        -0.000000     -0.000000      0.000000
 -----------------------------------------------------------------------------------
    total drift:                                0.000000      0.000000      0.000000


--------------------------------------------------------------------------------------------------------



  FREE ENERGIE OF THE ION-ELECTRON SYSTEM (eV)
  ---------------------------------------------------
  free  energy   TOTEN  =        -6.96188695 eV

  energy  without entropy=       -6.91903524  energy(sigma->0) =       -6.94046110
 


--------------------------------------------------------------------------------------------------------


    POTLOK:  cpu time    0.03: real time    0.03


--------------------------------------------------------------------------------------------------------


 writing wavefunctions
     LOOP+:  cpu time    1.45: real time    1.54
    4ORBIT:  cpu time    0.00: real time    0.00

 Spin-Orbit-Coupling matrix elements

 Ion:    1  E_soc:     -0.1581033
 l=   1
     0.0000000    -0.0202376    -0.0202376
    -0.0202376     0.0000000    -0.0202376
    -0.0202376    -0.0202376     0.0000000
 l=   2
     0.0000000    -0.0012395     0.0000000    -0.0012395    -0.0048734
    -0.0012395     0.0000000    -0.0036551    -0.0012395    -0.0012184
     0.0000000    -0.0036551     0.0000000    -0.0036551     0.0000000
    -0.0012395    -0.0012395    -0.0036551     0.0000000    -0.0012184
    -0.0048734    -0.0012184     0.0000000    -0.0012184     0.0000000
 l=   3
     0.0000000     0.0000000     0.0000000     0.0000000     0.0000000     0.0000000     0.0000000
     0.0000000     0.0000000     0.0000000     0.0000000     0.0000000     0.0000000     0.0000000
     0.0000000     0.0000000     0.0000000     0.0000000     0.0000000     0.0000000     0.0000000
     0.0000000     0.0000000     0.0000000     0.0000000     0.0000000     0.0000000     0.0000000
     0.0000000     0.0000000     0.0000000     0.0000000     0.0000000     0.0000000     0.0000000
     0.0000000     0.0000000     0.0000000     0.0000000     0.0000000     0.0000000     0.0000000
     0.0000000     0.0000000     0.0000000     0.0000000     0.0000000     0.0000000     0.0000000

 Ion:    2  E_soc:     -0.2042504
 l=   1
     0.0000000    -0.0343431    -0.0343431
    -0.0343431     0.0000000    -0.0343431
    -0.0343431    -0.0343431     0.0000000
 l=   2
     0.0000000    -0.0000793     0.0000000    -0.0000793     0.0003806
    -0.0000793     0.0000000     0.0002855    -0.0000793     0.0000952
     0.0000000     0.0002855     0.0000000     0.0002855     0.0000000
    -0.0000793    -0.0000793     0.0002855     0.0000000     0.0000952
     0.0003806     0.0000952     0.0000000     0.0000952     0.0000000
 l=   3
     0.0000000     0.0000000     0.0000000     0.0000000     0.0000000     0.0000000     0.0000000
     0.0000000     0.0000000     0.0000000     0.0000000     0.0000000     0.0000000     0.0000000
     0.0000000     0.0000000     0.0000000     0.0000000     0.0000000     0.0000000     0.0000000
     0.0000000     0.0000000     0.0000000     0.0000000     0.0000000     0.0000000     0.0000000
     0.0000000     0.0000000     0.0000000     0.0000000     0.0000000     0.0000000     0.0000000
     0.0000000     0.0000000     0.0000000     0.0000000     0.0000000     0.0000000     0.0000000
     0.0000000     0.0000000     0.0000000     0.0000000     0.0000000     0.0000000     0.0000000
 


 total charge     
 
# of ion     s       p       d       tot
----------------------------------------
  1        1.314   0.733   9.965  12.012
  2        1.427   2.077   0.020   3.524
------------------------------------------------
tot        2.741   2.810   9.985  15.536
 


 magnetization (x)
 
# of ion     s       p       d       tot
----------------------------------------
  1       -0.000   0.000  -0.000  -0.000
  2        0.000  -0.000  -0.000  -0.000
------------------------------------------------
tot       -0.000  -0.000  -0.000  -0.000
 


 magnetization (y)
 
# of ion     s       p       d       tot
----------------------------------------
  1       -0.000   0.000  -0.000  -0.000
  2       -0.000  -0.000   0.000  -0.000
------------------------------------------------
tot       -0.000  -0.000  -0.000  -0.000
 


 magnetization (z)
 
# of ion     s       p       d       tot
----------------------------------------
  1       -0.000   0.000   0.000  -0.000
  2       -0.000  -0.000  -0.000  -0.000
------------------------------------------------
tot       -0.000   0.000   0.000  -0.000
 

 total amount of memory used by VASP on root node    32136. kBytes
========================================================================

   base      :      30000. kBytes
   nonlr-proj:        313. kBytes
   fftplans  :        360. kBytes
   grid      :       1269. kBytes
   one-center:         62. kBytes
   wavefun   :        132. kBytes
 
  
  
 General timing and accounting informations for this job:
 ========================================================
  
                  Total CPU time used (sec):        2.959
                            User time (sec):        1.913
                          System time (sec):        1.046
                         Elapsed time (sec):        5.031
  
                   Maximum memory used (kb):       40116.
                   Average memory used (kb):           0.
  
                          Minor page faults:        45010
                          Major page faults:           10
                 Voluntary context switches:         4420
