unknown system                          
   1.00000000000000     
     0.000000    3.159000    3.159000
     3.159000    0.000000    3.159000
     3.159000    3.159000    0.000000
   Sn   Te
     1     1
Direct
  0.000000  0.000000  0.000000
  0.500000  0.500000  0.500000
 
   40   40   40
  783.17      751.31      663.46      539.28      402.65      274.58      169.59      94.920      50.441      29.260    
  20.003      14.125      10.318      7.8732      6.2475      5.1313      4.3629      3.8501      3.5303      3.3577    
  3.3035      3.3577      3.5303      3.8501      4.3629      5.1313      6.2475      7.8732      10.318      14.125    
  20.003      29.260      50.441      94.920      169.59      274.58      402.65      539.28      663.46      751.31    
  751.31      691.52      585.92      456.57      325.91      211.51      124.07      67.031      36.700      23.577    
  16.565      11.896      8.9046      6.9496      5.6227      4.7056      4.0812      3.6763      3.4376      3.3279    
  3.3279      3.4376      3.6762      4.0812      4.7056      5.6227      6.9496      8.9045      11.896      16.565    
  23.577      36.700      67.031      124.07      211.51      325.91      456.57      585.92      691.52      751.31    
  663.46      585.92      476.02      354.79      241.14      148.39      83.169      45.076      27.267      19.003    
  13.540      9.9948      7.6982      6.1573      5.0933      4.3593      3.8694      3.5641      3.3994      3.3476    
  3.3993      3.5640      3.8694      4.3593      5.0934      6.1573      7.6982      9.9948      13.540      19.003    
  27.267      45.076      83.169      148.39      241.14      354.79      476.02      585.92      663.46      691.52    
  539.28      456.57      354.79      251.84      162.23      94.944      52.480      30.853      21.166      15.098    
  11.065      8.4472      6.7037      5.5032      4.6679      4.0985      3.7295      3.5123      3.4125      3.4125    
  3.5123      3.7295      4.0985      4.6679      5.5032      6.7037      8.4472      11.065      15.098      21.166    
  30.854      52.480      94.944      162.23      251.84      354.79      456.57      539.28      585.92      585.92    
  402.65      325.91      241.14      162.23      99.260      56.842      33.555      22.787      16.391      12.012    
  9.1362      7.2222      5.9062      4.9852      4.3473      3.9221      3.6577      3.5152      3.4704      3.5152    
  3.6577      3.9221      4.3473      4.9852      5.9062      7.2222      9.1362      12.012      16.391      22.787    
  33.555      56.842      99.260      162.23      241.14      325.91      402.65      456.57      476.02      456.57    
  274.58      211.51      148.39      94.944      56.842      34.567      23.669      17.248      12.725      9.6968    
  7.6677      6.2694      5.2855      4.5956      4.1259      3.8229      3.6450      3.5634      3.5634      3.6451    
  3.8229      4.1259      4.5956      5.2855      6.2694      7.6677      9.6968      12.725      17.248      23.669    
  34.567      56.842      94.944      148.39      211.51      274.58      325.91      354.79      354.79      325.91    
  169.59      124.07      83.169      52.480      33.555      23.669      17.548      13.108      10.065      7.9957    
  6.5594      5.5418      4.8211      4.3226      3.9927      3.7889      3.6794      3.6451      3.6794      3.7889    
  3.9927      4.3226      4.8211      5.5418      6.5594      7.9957      10.065      13.108      17.548      23.669    
  33.555      52.480      83.169      124.07      169.59      211.51      241.14      251.84      241.14      211.51    
  94.920      67.031      45.076      30.853      22.787      17.248      13.108      10.193      8.1700      6.7469    
  5.7292      5.0017      4.4925      4.1498      3.9314      3.8043      3.7462      3.7462      3.8043      3.9314    
  4.1498      4.4925      5.0017      5.7292      6.7469      8.1700      10.193      13.108      17.248      22.787    
  30.853      45.076      67.031      94.920      124.07      148.39      162.23      162.23      148.39      124.07    
  50.441      36.700      27.267      21.166      16.391      12.725      10.065      8.1700      6.8118      5.8283    
  5.1186      4.6177      4.2772      4.0567      3.9230      3.8521      3.8299      3.8521      3.9230      4.0567    
  4.2772      4.6177      5.1186      5.8283      6.8118      8.1700      10.065      12.725      16.391      21.166    
  27.267      36.700      50.441      67.031      83.169      94.944      99.260      94.944      83.169      67.031    
  29.260      23.577      19.003      15.098      12.012      9.6968      7.9957      6.7469      5.8283      5.1591    
  4.6841      4.3604      4.1501      4.0208      3.9477      3.9150      3.9150      3.9477      4.0208      4.1501    
  4.3604      4.6841      5.1591      5.8283      6.7469      7.9957      9.6969      12.012      15.098      19.003    
  23.577      29.259      36.700      45.076      52.480      56.842      56.842      52.480      45.076      36.700    
  20.003      16.565      13.540      11.065      9.1362      7.6677      6.5594      5.7292      5.1186      4.6841    
  4.3892      4.1999      4.0852      4.0200      3.9873      3.9774      3.9873      4.0200      4.0852      4.2000    
  4.3893      4.6841      5.1186      5.7292      6.5594      7.6677      9.1362      11.065      13.540      16.565    
  20.002      23.577      27.267      30.853      33.555      34.567      33.555      30.854      27.267      23.577    
  14.125      11.896      9.9948      8.4472      7.2222      6.2694      5.5418      5.0017      4.6177      4.3604    
  4.1999      4.1077      4.0589      4.0356      4.0266      4.0266      4.0356      4.0589      4.1077      4.2000    
  4.3604      4.6177      5.0017      5.5418      6.2693      7.2221      8.4472      9.9949      11.896      14.125    
  16.565      19.003      21.166      22.787      23.669      23.669      22.787      21.166      19.003      16.565    
  10.318      8.9046      7.6982      6.7037      5.9062      5.2855      4.8211      4.4925      4.2772      4.1501    
  4.0852      4.0589      4.0526      4.0535      4.0545      4.0535      4.0526      4.0589      4.0852      4.1501    
  4.2773      4.4925      4.8211      5.2854      5.9061      6.7036      7.6982      8.9046      10.318      11.896    
  13.540      15.098      16.391      17.248      17.548      17.248      16.391      15.098      13.540      11.896    
  7.8732      6.9496      6.1573      5.5032      4.9852      4.5956      4.3226      4.1498      4.0567      4.0208    
  4.0200      4.0356      4.0535      4.0645      4.0645      4.0535      4.0357      4.0200      4.0208      4.0567    
  4.1498      4.3226      4.5956      4.9851      5.5031      6.1572      6.9496      7.8732      8.9046      9.9949    
  11.065      12.012      12.725      13.108      13.108      12.725      12.012      11.065      9.9948      8.9045    
  6.2475      5.6227      5.0933      4.6679      4.3473      4.1259      3.9927      3.9314      3.9230      3.9477    
  3.9873      4.0266      4.0545      4.0645      4.0545      4.0266      3.9873      3.9477      3.9230      3.9314    
  3.9927      4.1260      4.3473      4.6679      5.0933      5.6226      6.2474      6.9496      7.6982      8.4472    
  9.1362      9.6969      10.065      10.193      10.065      9.6968      9.1362      8.4472      7.6982      6.9496    
  5.1313      4.7056      4.3593      4.0985      3.9221      3.8229      3.7889      3.8043      3.8521      3.9150    
  3.9774      4.0266      4.0535      4.0535      4.0266      3.9775      3.9150      3.8521      3.8043      3.7889    
  3.8230      3.9221      4.0985      4.3593      4.7056      5.1313      5.6226      6.1572      6.7036      7.2221    
  7.6677      7.9957      8.1700      8.1700      7.9957      7.6677      7.2222      6.7037      6.1573      5.6227    
  4.3629      4.0812      3.8694      3.7295      3.6577      3.6450      3.6794      3.7462      3.8299      3.9150    
  3.9873      4.0356      4.0526      4.0357      3.9873      3.9150      3.8299      3.7462      3.6794      3.6451    
  3.6577      3.7296      3.8695      4.0813      4.3629      4.7056      5.0933      5.5031      5.9061      6.2693    
  6.5594      6.7469      6.8118      6.7469      6.5594      6.2694      5.9062      5.5032      5.0934      4.7056    
  3.8501      3.6763      3.5641      3.5123      3.5152      3.5634      3.6451      3.7462      3.8521      3.9477    
  4.0200      4.0589      4.0589      4.0200      3.9477      3.8521      3.7462      3.6450      3.5634      3.5152    
  3.5123      3.5641      3.6763      3.8502      4.0813      4.3593      4.6679      4.9851      5.2854      5.5418    
  5.7292      5.8283      5.8283      5.7292      5.5418      5.2855      4.9852      4.6679      4.3593      4.0812    
  3.5303      3.4376      3.3994      3.4125      3.4704      3.5634      3.6794      3.8043      3.9230      4.0208    
  4.0852      4.1077      4.0852      4.0208      3.9230      3.8043      3.6794      3.5634      3.4704      3.4125    
  3.3993      3.4376      3.5304      3.6763      3.8695      4.0985      4.3473      4.5956      4.8211      5.0017    
  5.1186      5.1591      5.1186      5.0017      4.8211      4.5956      4.3473      4.0985      3.8694      3.6762    
  3.3577      3.3279      3.3476      3.4125      3.5152      3.6451      3.7889      3.9314      4.0567      4.1501    
  4.2000      4.2000      4.1501      4.0567      3.9314      3.7889      3.6451      3.5152      3.4125      3.3475    
  3.3279      3.3578      3.4376      3.5641      3.7296      3.9221      4.1260      4.3226      4.4925      4.6177    
  4.6841      4.6841      4.6177      4.4925      4.3226      4.1259      3.9221      3.7295      3.5640      3.4376    
  3.3035      3.3279      3.3993      3.5123      3.6577      3.8229      3.9927      4.1498      4.2772      4.3604    
  4.3893      4.3604      4.2773      4.1498      3.9927      3.8230      3.6577      3.5123      3.3993      3.3279    
  3.3035      3.3279      3.3993      3.5123      3.6577      3.8230      3.9927      4.1498      4.2773      4.3604    
  4.3893      4.3604      4.2772      4.1498      3.9927      3.8229      3.6577      3.5123      3.3993      3.3279    
  3.3577      3.4376      3.5640      3.7295      3.9221      4.1259      4.3226      4.4925      4.6177      4.6841    
  4.6841      4.6177      4.4925      4.3226      4.1260      3.9221      3.7296      3.5641      3.4376      3.3578    
  3.3279      3.3475      3.4125      3.5152      3.6451      3.7889      3.9314      4.0567      4.1501      4.2000    
  4.2000      4.1501      4.0567      3.9314      3.7889      3.6451      3.5152      3.4125      3.3476      3.3279    
  3.5303      3.6762      3.8694      4.0985      4.3473      4.5956      4.8211      5.0017      5.1186      5.1591    
  5.1186      5.0017      4.8211      4.5956      4.3473      4.0985      3.8695      3.6763      3.5304      3.4376    
  3.3993      3.4125      3.4704      3.5634      3.6794      3.8043      3.9230      4.0208      4.0852      4.1077    
  4.0852      4.0208      3.9230      3.8043      3.6794      3.5634      3.4704      3.4125      3.3994      3.4376    
  3.8501      4.0812      4.3593      4.6679      4.9852      5.2855      5.5418      5.7292      5.8283      5.8283    
  5.7292      5.5418      5.2854      4.9851      4.6679      4.3593      4.0813      3.8502      3.6763      3.5641    
  3.5123      3.5152      3.5634      3.6450      3.7462      3.8521      3.9477      4.0200      4.0589      4.0589    
  4.0200      3.9477      3.8521      3.7462      3.6451      3.5634      3.5152      3.5123      3.5641      3.6763    
  4.3629      4.7056      5.0934      5.5032      5.9062      6.2694      6.5594      6.7469      6.8118      6.7469    
  6.5594      6.2693      5.9061      5.5031      5.0933      4.7056      4.3629      4.0813      3.8695      3.7296    
  3.6577      3.6451      3.6794      3.7462      3.8299      3.9150      3.9873      4.0357      4.0526      4.0356    
  3.9873      3.9150      3.8299      3.7462      3.6794      3.6450      3.6577      3.7295      3.8694      4.0812    
  5.1313      5.6227      6.1573      6.7037      7.2222      7.6677      7.9957      8.1700      8.1700      7.9957    
  7.6677      7.2221      6.7036      6.1572      5.6226      5.1313      4.7056      4.3593      4.0985      3.9221    
  3.8230      3.7889      3.8043      3.8521      3.9150      3.9775      4.0266      4.0535      4.0535      4.0266    
  3.9774      3.9150      3.8521      3.8043      3.7889      3.8229      3.9221      4.0985      4.3593      4.7056    
  6.2475      6.9496      7.6982      8.4472      9.1362      9.6968      10.065      10.193      10.065      9.6969    
  9.1362      8.4472      7.6982      6.9496      6.2474      5.6226      5.0933      4.6679      4.3473      4.1260    
  3.9927      3.9314      3.9230      3.9477      3.9873      4.0266      4.0545      4.0645      4.0545      4.0266    
  3.9873      3.9477      3.9230      3.9314      3.9927      4.1259      4.3473      4.6679      5.0933      5.6227    
  7.8732      8.9045      9.9948      11.065      12.012      12.725      13.108      13.108      12.725      12.012    
  11.065      9.9949      8.9046      7.8732      6.9496      6.1572      5.5031      4.9851      4.5956      4.3226    
  4.1498      4.0567      4.0208      4.0200      4.0357      4.0535      4.0645      4.0645      4.0535      4.0356    
  4.0200      4.0208      4.0567      4.1498      4.3226      4.5956      4.9852      5.5032      6.1573      6.9496    
  10.318      11.896      13.540      15.098      16.391      17.248      17.548      17.248      16.391      15.098    
  13.540      11.896      10.318      8.9046      7.6982      6.7036      5.9061      5.2854      4.8211      4.4925    
  4.2773      4.1501      4.0852      4.0589      4.0526      4.0535      4.0545      4.0535      4.0526      4.0589    
  4.0852      4.1501      4.2772      4.4925      4.8211      5.2855      5.9062      6.7037      7.6982      8.9046    
  14.125      16.565      19.003      21.166      22.787      23.669      23.669      22.787      21.166      19.003    
  16.565      14.125      11.896      9.9949      8.4472      7.2221      6.2693      5.5418      5.0017      4.6177    
  4.3604      4.2000      4.1077      4.0589      4.0356      4.0266      4.0266      4.0356      4.0589      4.1077    
  4.1999      4.3604      4.6177      5.0017      5.5418      6.2694      7.2222      8.4472      9.9948      11.896    
  20.003      23.577      27.267      30.854      33.555      34.567      33.555      30.853      27.267      23.577    
  20.002      16.565      13.540      11.065      9.1362      7.6677      6.5594      5.7292      5.1186      4.6841    
  4.3893      4.2000      4.0852      4.0200      3.9873      3.9774      3.9873      4.0200      4.0852      4.1999    
  4.3892      4.6841      5.1186      5.7292      6.5594      7.6677      9.1362      11.065      13.540      16.565    
  29.260      36.700      45.076      52.480      56.842      56.842      52.480      45.076      36.700      29.259    
  23.577      19.003      15.098      12.012      9.6969      7.9957      6.7469      5.8283      5.1591      4.6841    
  4.3604      4.1501      4.0208      3.9477      3.9150      3.9150      3.9477      4.0208      4.1501      4.3604    
  4.6841      5.1591      5.8283      6.7469      7.9957      9.6968      12.012      15.098      19.003      23.577    
  50.441      67.031      83.169      94.944      99.260      94.944      83.169      67.031      50.441      36.700    
  27.267      21.166      16.391      12.725      10.065      8.1700      6.8118      5.8283      5.1186      4.6177    
  4.2772      4.0567      3.9230      3.8521      3.8299      3.8521      3.9230      4.0567      4.2772      4.6177    
  5.1186      5.8283      6.8118      8.1700      10.065      12.725      16.391      21.166      27.267      36.700    
  94.920      124.07      148.39      162.23      162.23      148.39      124.07      94.920      67.031      45.076    
  30.853      22.787      17.248      13.108      10.193      8.1700      6.7469      5.7292      5.0017      4.4925    
  4.1498      3.9314      3.8043      3.7462      3.7462      3.8043      3.9314      4.1498      4.4925      5.0017    
  5.7292      6.7469      8.1700      10.193      13.108      17.248      22.787      30.853      45.076      67.031    
  169.59      211.51      241.14      251.84      241.14      211.51      169.59      124.07      83.169      52.480    
  33.555      23.669      17.548      13.108      10.065      7.9957      6.5594      5.5418      4.8211      4.3226    
  3.9927      3.7889      3.6794      3.6451      3.6794      3.7889      3.9927      4.3226      4.8211      5.5418    
  6.5594      7.9957      10.065      13.108      17.548      23.669      33.555      52.480      83.169      124.07    
  274.58      325.91      354.79      354.79      325.91      274.58      211.51      148.39      94.944      56.842    
  34.567      23.669      17.248      12.725      9.6968      7.6677      6.2694      5.2855      4.5956      4.1259    
  3.8229      3.6451      3.5634      3.5634      3.6450      3.8229      4.1259      4.5956      5.2855      6.2694    
  7.6677      9.6968      12.725      17.248      23.669      34.567      56.842      94.944      148.39      211.51    
  402.65      456.57      476.02      456.57      402.65      325.91      241.14      162.23      99.260      56.842    
  33.555      22.787      16.391      12.012      9.1362      7.2222      5.9062      4.9852      4.3473      3.9221    
  3.6577      3.5152      3.4704      3.5152      3.6577      3.9221      4.3473      4.9852      5.9062      7.2222    
  9.1362      12.012      16.391      22.787      33.555      56.842      99.260      162.23      241.14      325.91    
  539.28      585.92      585.92      539.28      456.57      354.79      251.84      162.23      94.944      52.480    
  30.854      21.166      15.098      11.065      8.4472      6.7037      5.5032      4.6679      4.0985      3.7295    
  3.5123      3.4125      3.4125      3.5123      3.7295      4.0985      4.6679      5.5032      6.7037      8.4472    
  11.065      15.098      21.166      30.853      52.480      94.944      162.23      251.84      354.79      456.57    
  663.46      691.52      663.46      585.92      476.02      354.79      241.14      148.39      83.169      45.076    
  27.267      19.003      13.540      9.9948      7.6982      6.1573      5.0934      4.3593      3.8694      3.5640    
  3.3993      3.3476      3.3994      3.5641      3.8694      4.3593      5.0933      6.1573      7.6982      9.9948    
  13.540      19.003      27.267      45.076      83.169      148.39      241.14      354.79      476.02      585.92    
  751.31      751.31      691.52      585.92      456.57      325.91      211.51      124.07      67.031      36.700    
  23.577      16.565      11.896      8.9045      6.9496      5.6227      4.7056      4.0812      3.6762      3.4376    
  3.3279      3.3279      3.4376      3.6763      4.0812      4.7056      5.6227      6.9496      8.9046      11.896    
  16.565      23.577      36.700      67.031      124.07      211.51      325.91      456.57      585.92      691.52    
  751.31      691.52      585.92      456.57      325.91      211.51      124.07      67.031      36.700      23.577    
  16.565      11.896      8.9046      6.9496      5.6227      4.7056      4.0812      3.6763      3.4376      3.3279    
  3.3279      3.4376      3.6762      4.0812      4.7056      5.6227      6.9496      8.9045      11.896      16.565    
  23.577      36.700      67.031      124.07      211.51      325.91      456.57      585.92      691.52      751.31    
  691.52      610.71      496.26      370.11      251.81      155.11      86.839      46.697      27.823      19.252    
  13.650      10.017      7.6694      6.0990      5.0168      4.2707      3.7726      3.4620      3.2943      3.2416    
  3.2943      3.4620      3.7726      4.2707      5.0169      6.0990      7.6693      10.017      13.650      19.252    
  27.823      46.697      86.839      155.11      251.81      370.11      496.26      610.71      691.52      720.79    
  585.92      496.26      386.05      274.55      177.23      103.67      56.703      32.445      21.786      15.413    
  11.171      8.4284      6.6130      5.3687      4.5047      3.9157      3.5335      3.3082      3.2045      3.2045    
  3.3082      3.5335      3.9157      4.5047      5.3687      6.6130      8.4283      11.171      15.413      21.786    
  32.445      56.703      103.67      177.23      274.55      386.05      496.26      585.92      636.54      636.54    
  456.57      370.11      274.55      185.25      113.35      64.147      36.568      23.900      16.992      12.264    
  9.1706      7.1294      5.7362      4.7649      4.0923      3.6431      3.3630      3.2116      3.1639      3.2116    
  3.3630      3.6431      4.0923      4.7649      5.7362      7.1294      9.1706      12.264      16.992      23.900    
  36.568      64.147      113.35      185.25      274.55      370.11      456.57      517.34      539.28      517.34    
  325.91      251.81      177.23      113.35      66.901      39.026      25.378      18.185      13.171      9.8251    
  7.6044      6.0891      5.0286      4.2856      3.7781      3.4490      3.2549      3.1654      3.1654      3.2549    
  3.4490      3.7781      4.2856      5.0286      6.0891      7.6045      9.8251      13.171      18.185      25.378    
  39.026      66.901      113.35      177.23      251.81      325.91      386.08      419.93      419.93      386.08    
  211.51      155.11      103.67      64.147      39.026      25.919      18.827      13.774      10.316      7.9905    
  6.3941      5.2708      4.4756      3.9229      3.5541      3.3242      3.1998      3.1606      3.1998      3.3242    
  3.5541      3.9229      4.4756      5.2708      6.3942      7.9906      10.316      13.774      18.827      25.919    
  39.026      64.147      103.67      155.11      211.51      263.01      299.27      312.35      299.27      263.01    
  124.07      86.839      56.703      36.568      25.378      18.827      13.986      10.581      8.2434      6.6194    
  5.4664      4.6418      4.0603      3.6639      3.4074      3.2561      3.1863      3.1863      3.2561      3.4075    
  3.6639      4.0602      4.6417      5.4664      6.6195      8.2435      10.581      13.986      18.827      25.378    
  36.568      56.703      86.840      124.07      162.27      193.77      211.61      211.61      193.77      162.27    
  67.031      46.697      32.445      23.900      18.185      13.774      10.581      8.3316      6.7393      5.5938    
  4.7651      4.1734      3.7634      3.4914      3.3222      3.2306      3.2017      3.2306      3.3222      3.4914    
  3.7634      4.1734      4.7651      5.5938      6.7393      8.3316      10.581      13.774      18.185      23.900    
  32.445      46.697      67.031      90.874      113.56      129.90      135.85      129.90      113.56      90.874    
  36.700      27.823      21.786      16.992      13.171      10.316      8.2434      6.7393      5.6380      4.8308    
  4.2478      3.8388      3.5629      3.3858      3.2816      3.2334      3.2334      3.2816      3.3858      3.5629    
  3.8388      4.2478      4.8308      5.6380      6.7393      8.2435      10.316      13.171      16.992      21.786    
  27.823      36.700      48.621      61.789      73.196      79.829      79.829      73.196      61.789      48.621    
  23.577      19.252      15.413      12.264      9.8251      7.9905      6.6194      5.5938      4.8308      4.2737    
  3.8795      3.6110      3.4357      3.3278      3.2696      3.2512      3.2696      3.3278      3.4357      3.6110    
  3.8795      4.2738      4.8308      5.5938      6.6195      7.9906      9.8251      12.264      15.413      19.252    
  23.577      28.633      34.661      40.747      45.339      47.052      45.339      40.747      34.661      28.633    
  16.565      13.650      11.171      9.1706      7.6044      6.3941      5.4664      4.7651      4.2478      3.8795    
  3.6279      3.4630      3.3598      3.3000      3.2727      3.2727      3.3000      3.3598      3.4630      3.6279    
  3.8795      4.2478      4.7651      5.4664      6.3941      7.6045      9.1706      11.171      13.650      16.565    
  19.740      22.880      25.781      28.205      29.623      29.623      28.205      25.781      22.880      19.740    
  11.896      10.017      8.4284      7.1294      6.0891      5.2708      4.6418      4.1734      3.8388      3.6110    
  3.4630      3.3712      3.3172      3.2892      3.2805      3.2892      3.3172      3.3712      3.4630      3.6110    
  3.8389      4.1734      4.6417      5.2708      6.0890      7.1293      8.4284      10.017      11.896      14.008    
  16.212      18.297      20.018      21.153      21.549      21.153      20.018      18.297      16.212      14.008    
  8.9046      7.6694      6.6130      5.7362      5.0286      4.4756      4.0603      3.7634      3.5629      3.4357    
  3.3598      3.3172      3.2953      3.2861      3.2861      3.2953      3.3173      3.3598      3.4357      3.5629    
  3.7634      4.0603      4.4756      5.0286      5.7361      6.6129      7.6693      8.9046      10.294      11.774    
  13.235      14.532      15.509      16.034      16.034      15.509      14.532      13.235      11.774      10.294    
  6.9496      6.0990      5.3687      4.7649      4.2856      3.9229      3.6639      3.4914      3.3858      3.3278    
  3.3000      3.2892      3.2861      3.2856      3.2861      3.2892      3.3000      3.3278      3.3858      3.4914    
  3.6639      3.9229      4.2855      4.7648      5.3686      6.0989      6.9496      7.9022      8.9201      9.9435    
  10.890      11.663      12.172      12.349      12.172      11.663      10.890      9.9434      8.9201      7.9022    
  5.6227      5.0168      4.5047      4.0923      3.7781      3.5541      3.4074      3.3222      3.2816      3.2696    
  3.2727      3.2805      3.2861      3.2861      3.2805      3.2727      3.2696      3.2816      3.3222      3.4075    
  3.5541      3.7781      4.0924      4.5047      5.0168      5.6226      6.3070      7.0437      7.7937      8.5052    
  9.1175      9.5692      9.8095      9.8095      9.5692      9.1175      8.5052      7.7937      7.0438      6.3071    
  4.7056      4.2707      3.9157      3.6431      3.4490      3.3242      3.2561      3.2306      3.2334      3.2512    
  3.2727      3.2892      3.2953      3.2892      3.2727      3.2512      3.2334      3.2306      3.2561      3.3242    
  3.4491      3.6432      3.9157      4.2708      4.7056      5.2097      5.7637      6.3394      6.8997      7.4021    
  7.8021      8.0605      8.1499      8.0605      7.8021      7.4021      6.8998      6.3394      5.7638      5.2097    
  4.0812      3.7726      3.5335      3.3630      3.2549      3.1998      3.1863      3.2017      3.2334      3.2696    
  3.3000      3.3172      3.3173      3.3000      3.2696      3.2334      3.2017      3.1863      3.1998      3.2549    
  3.3630      3.5336      3.7727      4.0813      4.4537      4.8770      5.3305      5.7863      6.2116      6.5713    
  6.8329      6.9706      6.9706      6.8329      6.5714      6.2116      5.7864      5.3305      4.8770      4.4537    
  3.6763      3.4620      3.3082      3.2116      3.1654      3.1606      3.1863      3.2306      3.2816      3.3278    
  3.3598      3.3712      3.3598      3.3278      3.2816      3.2306      3.1863      3.1606      3.1654      3.2116    
  3.3082      3.4621      3.6763      3.9493      4.2732      4.6338      5.0101      5.3760      5.7027      5.9613    
  6.1276      6.1850      6.1276      5.9613      5.7027      5.3761      5.0101      4.6337      4.2732      3.9492    
  3.4376      3.2943      3.2045      3.1639      3.1654      3.1998      3.2561      3.3222      3.3858      3.4357    
  3.4630      3.4630      3.4357      3.3858      3.3222      3.2561      3.1998      3.1654      3.1639      3.2045    
  3.2943      3.4376      3.6349      3.8821      4.1696      4.4822      4.7993      5.0968      5.3491      5.5328    
  5.6295      5.6295      5.5327      5.3491      5.0968      4.7993      4.4821      4.1695      3.8820      3.6348    
  3.3279      3.2416      3.2045      3.2116      3.2549      3.3242      3.4075      3.4914      3.5629      3.6110    
  3.6279      3.6110      3.5629      3.4914      3.4075      3.3242      3.2549      3.2116      3.2045      3.2416    
  3.3279      3.4653      3.6518      3.8811      4.1418      4.4178      4.6890      4.9330      5.1272      5.2524    
  5.2957      5.2524      5.1271      4.9329      4.6890      4.4177      4.1417      3.8810      3.6518      3.4653    
  3.3279      3.2943      3.3082      3.3630      3.4490      3.5541      3.6639      3.7634      3.8388      3.8795    
  3.8795      3.8389      3.7634      3.6639      3.5541      3.4491      3.3630      3.3082      3.2943      3.3279    
  3.4120      3.5462      3.7258      3.9423      4.1827      4.4299      4.6640      4.8641      5.0105      5.0879    
  5.0879      5.0105      4.8641      4.6640      4.4298      4.1827      3.9424      3.7259      3.5462      3.4121    
  3.4376      3.4620      3.5335      3.6431      3.7781      3.9229      4.0602      4.1734      4.2478      4.2738    