unknown system                          
   1.00000000000000     
     0.000000    3.159000    3.159000
     3.159000    0.000000    3.159000
     3.159000    3.159000    0.000000
   Sn   Te
     1     1
Direct
  0.000000  0.000000  0.000000
  0.500000  0.500000  0.500000
 
   40   40   40
 0.78316653844E+03 0.75131345284E+03 0.66345773170E+03 0.53927699542E+03 0.40265297190E+03
 0.27457906892E+03 0.16959271600E+03 0.94919681993E+02 0.50441007319E+02 0.29259521617E+02
 0.20002502973E+02 0.14125151519E+02 0.10318270949E+02 0.78732342673E+01 0.62474887472E+01
 0.51313318141E+01 0.43628973548E+01 0.38500635439E+01 0.35302892939E+01 0.33577470252E+01
 0.33035136852E+01 0.33577470252E+01 0.35302892939E+01 0.38500635439E+01 0.43628973548E+01
 0.51313318141E+01 0.62474887472E+01 0.78732342673E+01 0.10318270949E+02 0.14125151519E+02
 0.20002502973E+02 0.29259521617E+02 0.50441007319E+02 0.94919681993E+02 0.16959271600E+03
 0.27457906892E+03 0.40265297190E+03 0.53927699542E+03 0.66345773170E+03 0.75131345284E+03
 0.75131345284E+03 0.69152162813E+03 0.58592040990E+03 0.45656574386E+03 0.32590515997E+03
 0.21150812823E+03 0.12407055202E+03 0.67031474108E+02 0.36700300213E+02 0.23577432596E+02
 0.16565090716E+02 0.11896063117E+02 0.89045607832E+01 0.69496364490E+01 0.56226842899E+01
 0.47055975959E+01 0.40812054402E+01 0.36762515441E+01 0.34375973299E+01 0.33279306743E+01
 0.33279225982E+01 0.34375799061E+01 0.36762393940E+01 0.40812083092E+01 0.47056118031E+01
 0.56226954714E+01 0.69496317081E+01 0.89045398131E+01 0.11896038998E+02 0.16565079067E+02
 0.23577438131E+02 0.36700311639E+02 0.67031472358E+02 0.12407052518E+03 0.21150808165E+03
 0.32590511290E+03 0.45656571544E+03 0.58592040564E+03 0.69152163705E+03 0.75131345838E+03
 0.66345773170E+03 0.58592040990E+03 0.47601713785E+03 0.35479492495E+03 0.24113565996E+03
 0.14838571387E+03 0.83168677372E+02 0.45075630546E+02 0.27266898055E+02 0.19002818572E+02
 0.13539876246E+02 0.99948245456E+01 0.76982351947E+01 0.61572916933E+01 0.50933477054E+01
 0.43592994685E+01 0.38693907311E+01 0.35640670592E+01 0.33993551610E+01 0.33475722601E+01
 0.33993355724E+01 0.35640440974E+01 0.38693831347E+01 0.43593125282E+01 0.50933684566E+01
 0.61572994636E+01 0.76982190474E+01 0.99947931013E+01 0.13539851530E+02 0.19002818221E+02
 0.27266920101E+02 0.45075652838E+02 0.83168672599E+02 0.14838566852E+03 0.24113558336E+03
 0.35479484195E+03 0.47601707211E+03 0.58592037120E+03 0.66345771594E+03 0.69152163705E+03
 0.53927699542E+03 0.45656574386E+03 0.35479492495E+03 0.25184128435E+03 0.16223021709E+03
 0.94943666410E+02 0.52480107416E+02 0.30853486947E+02 0.21165797559E+02 0.15098396888E+02
 0.11065281551E+02 0.84472110363E+01 0.67037009590E+01 0.55032094113E+01 0.46678986531E+01
 0.40984581997E+01 0.37295231935E+01 0.35123028109E+01 0.34125050442E+01 0.34124976749E+01
 0.35122864143E+01 0.37295104605E+01 0.40984589654E+01 0.46679120996E+01 0.55032244688E+01
 0.67037046899E+01 0.84471989689E+01 0.11065262045E+02 0.15098386075E+02 0.21165807751E+02
 0.30853516465E+02 0.52480138471E+02 0.94943673061E+02 0.16223017847E+03 0.25184119607E+03
 0.35479480283E+03 0.45656561872E+03 0.53927690221E+03 0.58592037120E+03 0.58592040564E+03
 0.40265297190E+03 0.32590515997E+03 0.24113565996E+03 0.16223021709E+03 0.99259563058E+02
 0.56841792001E+02 0.33555370724E+02 0.22786817325E+02 0.16391147380E+02 0.12012407478E+02
 0.91361915959E+01 0.72221638592E+01 0.59061967737E+01 0.49851655550E+01 0.43472524322E+01
 0.39220631779E+01 0.36576663339E+01 0.35151899867E+01 0.34704113891E+01 0.35151900784E+01
 0.36576649556E+01 0.39220600507E+01 0.43472506873E+01 0.49851698237E+01 0.59062081244E+01
 0.72221764877E+01 0.91361958605E+01 0.12012398355E+02 0.16391131554E+02 0.22786811145E+02
 0.33555387786E+02 0.56841828228E+02 0.99259591701E+02 0.16223020101E+03 0.24113557574E+03
 0.32590501902E+03 0.40265282196E+03 0.45656561872E+03 0.47601707211E+03 0.45656571544E+03
 0.27457906892E+03 0.21150812823E+03 0.14838571387E+03 0.94943666410E+02 0.56841792001E+02
 0.34567035910E+02 0.23669035022E+02 0.17247804625E+02 0.12724927734E+02 0.96968219238E+01
 0.76676739309E+01 0.62693816263E+01 0.52854552248E+01 0.45955885333E+01 0.41259310907E+01
 0.38229190204E+01 0.36450499733E+01 0.35634288437E+01 0.35634362335E+01 0.36450650487E+01
 0.38229274589E+01 0.41259254439E+01 0.45955762907E+01 0.52854522914E+01 0.62693965521E+01
 0.76676969666E+01 0.96968304737E+01 0.12724905189E+02 0.17247757434E+02 0.23668991839E+02
 0.34567026989E+02 0.56841823537E+02 0.94943710967E+02 0.14838572731E+03 0.21150808198E+03
 0.27457897464E+03 0.32590501902E+03 0.35479480283E+03 0.35479484195E+03 0.32590511290E+03
 0.16959271600E+03 0.12407055202E+03 0.83168677372E+02 0.52480107416E+02 0.33555370724E+02
 0.23669035022E+02 0.17547811966E+02 0.13108335079E+02 0.10064543698E+02 0.79957154738E+01
 0.65593632010E+01 0.55418154065E+01 0.48210909717E+01 0.43225909804E+01 0.39926714214E+01
 0.37888503729E+01 0.36794108011E+01 0.36450683488E+01 0.36794293385E+01 0.37888712351E+01
 0.39926765139E+01 0.43225764924E+01 0.48210710713E+01 0.55418096467E+01 0.65593779746E+01
 0.79957355162E+01 0.10064541980E+02 0.13108294204E+02 0.17547740172E+02 0.23668963466E+02
 0.33555333033E+02 0.52480117205E+02 0.83168719870E+02 0.12407059698E+03 0.16959273977E+03
 0.21150808198E+03 0.24113557574E+03 0.25184119607E+03 0.24113558336E+03 0.21150808165E+03
 0.94919681993E+02 0.67031474108E+02 0.45075630546E+02 0.30853486947E+02 0.22786817325E+02
 0.17247804625E+02 0.13108335079E+02 0.10192786549E+02 0.81699899419E+01 0.67468913223E+01
 0.57292449943E+01 0.50016982594E+01 0.44925348014E+01 0.41497964488E+01 0.39313913585E+01
 0.38042948336E+01 0.37462404586E+01 0.37462481629E+01 0.38043119050E+01 0.39314041696E+01
 0.41497942842E+01 0.44925180548E+01 0.50016784371E+01 0.57292358870E+01 0.67468980190E+01
 0.81700033349E+01 0.10192787968E+02 0.13108308067E+02 0.17247746504E+02 0.22786743111E+02
 0.30853422807E+02 0.45075601462E+02 0.67031491326E+02 0.94919737956E+02 0.12407059698E+03
 0.14838572731E+03 0.16223020101E+03 0.16223017847E+03 0.14838566852E+03 0.12407052518E+03
 0.50441007319E+02 0.36700300213E+02 0.27266898055E+02 0.21165797559E+02 0.16391147380E+02
 0.12724927734E+02 0.10064543698E+02 0.81699899419E+01 0.68118040258E+01 0.58282993936E+01
 0.51185931424E+01 0.46176994166E+01 0.42772443398E+01 0.40567457387E+01 0.39229982913E+01
 0.38520579262E+01 0.38299299328E+01 0.38520592996E+01 0.39230016330E+01 0.40567499441E+01
 0.42772452879E+01 0.46176926378E+01 0.51185791466E+01 0.58282866858E+01 0.68118049918E+01
 0.81700109319E+01 0.10064576100E+02 0.12724949074E+02 0.16391133665E+02 0.21165741056E+02
 0.27266815804E+02 0.36700227456E+02 0.50440976344E+02 0.67031491326E+02 0.83168719870E+02
 0.94943710967E+02 0.99259591701E+02 0.94943673061E+02 0.83168672599E+02 0.67031472358E+02
 0.29259521617E+02 0.23577432596E+02 0.19002818572E+02 0.15098396888E+02 0.12012407478E+02
 0.96968219238E+01 0.79957154738E+01 0.67468913223E+01 0.58282993936E+01 0.51590583136E+01
 0.46841026582E+01 0.43603689760E+01 0.41501055206E+01 0.40208119024E+01 0.39477316323E+01
 0.39149827171E+01 0.39149767467E+01 0.39477198599E+01 0.40208067903E+01 0.41501136549E+01
 0.43603839117E+01 0.46841103053E+01 0.51590507764E+01 0.58282853345E+01 0.67468922292E+01
 0.79957492345E+01 0.96968854935E+01 0.12012473746E+02 0.15098428995E+02 0.19002793577E+02
 0.23577356228E+02 0.29259423785E+02 0.36700227456E+02 0.45075601462E+02 0.52480117205E+02
 0.56841823537E+02 0.56841828228E+02 0.52480138471E+02 0.45075652838E+02 0.36700311639E+02
 0.20002502973E+02 0.16565090716E+02 0.13539876246E+02 0.11065281551E+02 0.91361915959E+01
 0.76676739309E+01 0.65593632010E+01 0.57292449943E+01 0.51185931424E+01 0.46841026582E+01
 0.43892477091E+01 0.41999461720E+01 0.40851993129E+01 0.40200406182E+01 0.39873256952E+01
 0.39774369168E+01 0.39873128876E+01 0.40200271163E+01 0.40851991730E+01 0.41999632992E+01
 0.43892717644E+01 0.46841167624E+01 0.51185877618E+01 0.57292273955E+01 0.65593545538E+01
 0.76676955435E+01 0.91362491708E+01 0.11065358830E+02 0.13539941774E+02 0.16565113795E+02
 0.20002469508E+02 0.23577356228E+02 0.27266815804E+02 0.30853422807E+02 0.33555333033E+02
 0.34567026989E+02 0.33555387786E+02 0.30853516465E+02 0.27266920101E+02 0.23577438131E+02
 0.14125151519E+02 0.11896063117E+02 0.99948245456E+01 0.84472110363E+01 0.72221638592E+01
 0.62693816263E+01 0.55418154065E+01 0.50016982594E+01 0.46176994166E+01 0.43603689760E+01
 0.41999461720E+01 0.41076660766E+01 0.40589272848E+01 0.40356460185E+01 0.40266090707E+01
 0.40266058921E+01 0.40356389860E+01 0.40589225758E+01 0.41076699301E+01 0.41999603149E+01
 0.43603876233E+01 0.46177105994E+01 0.50016903218E+01 0.55417860077E+01 0.62693432292E+01
 0.72221406340E+01 0.84472262208E+01 0.99948851107E+01 0.11896151483E+02 0.14125231161E+02
 0.16565113795E+02 0.19002793577E+02 0.21165741056E+02 0.22786743111E+02 0.23668963466E+02
 0.23668991839E+02 0.22786811145E+02 0.21165807751E+02 0.19002818221E+02 0.16565079067E+02
 0.10318270949E+02 0.89045607832E+01 0.76982351947E+01 0.67037009590E+01 0.59061967737E+01
 0.52854552248E+01 0.48210909717E+01 0.44925348014E+01 0.42772443398E+01 0.41501055206E+01
 0.40851993129E+01 0.40589272848E+01 0.40526012280E+01 0.40534902116E+01 0.40545274178E+01
 0.40534938062E+01 0.40526037102E+01 0.40589251289E+01 0.40851954183E+01 0.41501072707E+01
 0.42772547719E+01 0.44925449786E+01 0.48210823085E+01 0.52854131630E+01 0.59061262045E+01
 0.67036305802E+01 0.76982039199E+01 0.89045937074E+01 0.10318361694E+02 0.11896151483E+02
 0.13539941774E+02 0.15098428995E+02 0.16391133665E+02 0.17247746504E+02 0.17547740172E+02
 0.17247757434E+02 0.16391131554E+02 0.15098386075E+02 0.13539851530E+02 0.11896038998E+02
 0.78732342673E+01 0.69496364490E+01 0.61572916933E+01 0.55032094113E+01 0.49851655550E+01
 0.45955885333E+01 0.43225909804E+01 0.41497964488E+01 0.40567457387E+01 0.40208119024E+01
 0.40200406182E+01 0.40356460185E+01 0.40534902116E+01 0.40645423321E+01 0.40645473971E+01
 0.40535000936E+01 0.40356501194E+01 0.40200340539E+01 0.40208016233E+01 0.40567451015E+01
 0.41498118324E+01 0.43226119732E+01 0.45955913860E+01 0.49851295612E+01 0.55031344406E+01
 0.61572034799E+01 0.69495741652E+01 0.78732279710E+01 0.89045937074E+01 0.99948851107E+01
 0.11065358830E+02 0.12012473746E+02 0.12724949074E+02 0.13108308067E+02 0.13108294204E+02
 0.12724905189E+02 0.12012398355E+02 0.11065262045E+02 0.99947931013E+01 0.89045398131E+01
 0.62474887472E+01 0.56226842899E+01 0.50933477054E+01 0.46678986531E+01 0.43472524322E+01
 0.41259310907E+01 0.39926714214E+01 0.39313913585E+01 0.39229982913E+01 0.39477316323E+01
 0.39873256952E+01 0.40266090707E+01 0.40545274178E+01 0.40645473971E+01 0.40545377579E+01
 0.40266213262E+01 0.39873306117E+01 0.39477279953E+01 0.39229954087E+01 0.39314024331E+01
 0.39927021551E+01 0.41259722387E+01 0.43472823105E+01 0.46678951444E+01 0.50933018942E+01
 0.56226071744E+01 0.62474068750E+01 0.69495741652E+01 0.76982039199E+01 0.84472262208E+01
 0.91362491708E+01 0.96968854935E+01 0.10064576100E+02 0.10192787968E+02 0.10064541980E+02
 0.96968304737E+01 0.91361958605E+01 0.84471989689E+01 0.76982190474E+01 0.69496317081E+01
 0.51313318141E+01 0.47055975959E+01 0.43592994685E+01 0.40984581997E+01 0.39220631779E+01
 0.38229190204E+01 0.37888503729E+01 0.38042948336E+01 0.38520579262E+01 0.39149827171E+01
 0.39774369168E+01 0.40266058921E+01 0.40534938062E+01 0.40535000936E+01 0.40266213262E+01
 0.39774534732E+01 0.39149932821E+01 0.38520617475E+01 0.38042993340E+01 0.37888675340E+01
 0.38229575537E+01 0.39221208395E+01 0.40985190199E+01 0.43593390354E+01 0.47055945234E+01
 0.51312794262E+01 0.56226071744E+01 0.61572034799E+01 0.67036305802E+01 0.72221406340E+01
 0.76676955435E+01 0.79957492345E+01 0.81700109319E+01 0.81700033349E+01 0.79957355162E+01
 0.76676969666E+01 0.72221764877E+01 0.67037046899E+01 0.61572994636E+01 0.56226954714E+01
 0.43628973548E+01 0.40812054402E+01 0.38693907311E+01 0.37295231935E+01 0.36576663339E+01
 0.36450499733E+01 0.36794108011E+01 0.37462404586E+01 0.38299299328E+01 0.39149767467E+01
 0.39873128876E+01 0.40356389860E+01 0.40526037102E+01 0.40356501194E+01 0.39873306117E+01
 0.39149932821E+01 0.38299375364E+01 0.37462364411E+01 0.36794015955E+01 0.36450505518E+01
 0.36576928991E+01 0.37295822399E+01 0.38694710122E+01 0.40812796946E+01 0.43629347861E+01
 0.47055945234E+01 0.50933018942E+01 0.55031344406E+01 0.59061262045E+01 0.62693432292E+01
 0.65593545538E+01 0.67468922292E+01 0.68118049918E+01 0.67468980190E+01 0.65593779746E+01
 0.62693965521E+01 0.59062081244E+01 0.55032244688E+01 0.50933684566E+01 0.47056118031E+01
 0.38500635439E+01 0.36762515441E+01 0.35640670592E+01 0.35123028109E+01 0.35151899867E+01
 0.35634288437E+01 0.36450683488E+01 0.37462481629E+01 0.38520592996E+01 0.39477198599E+01
 0.40200271163E+01 0.40589225758E+01 0.40589251289E+01 0.40200340539E+01 0.39477279953E+01
 0.38520617475E+01 0.37462364411E+01 0.36450387417E+01 0.35633890460E+01 0.35151598013E+01
 0.35123054741E+01 0.35641152577E+01 0.36763370746E+01 0.38501586711E+01 0.40812796946E+01
 0.43593390354E+01 0.46678951444E+01 0.49851295612E+01 0.52854131630E+01 0.55417860077E+01
 0.57292273955E+01 0.58282853345E+01 0.58282866858E+01 0.57292358870E+01 0.55418096467E+01
 0.52854522914E+01 0.49851698237E+01 0.46679120996E+01 0.43593125282E+01 0.40812083092E+01
 0.35302892939E+01 0.34375973299E+01 0.33993551610E+01 0.34125050442E+01 0.34704113891E+01
 0.35634362335E+01 0.36794293385E+01 0.38043119050E+01 0.39230016330E+01 0.40208067903E+01
 0.40851991730E+01 0.41076699301E+01 0.40851954183E+01 0.40208016233E+01 0.39229954087E+01
 0.38042993340E+01 0.36794015955E+01 0.35633890460E+01 0.34703530239E+01 0.34124569158E+01
 0.33993421679E+01 0.34376334532E+01 0.35303682356E+01 0.36763370746E+01 0.38694710122E+01
 0.40985190199E+01 0.43472823105E+01 0.45955913860E+01 0.48210823085E+01 0.50016903218E+01
 0.51185877618E+01 0.51590507764E+01 0.51185791466E+01 0.50016784371E+01 0.48210710713E+01
 0.45955762907E+01 0.43472506873E+01 0.40984589654E+01 0.38693831347E+01 0.36762393940E+01
 0.33577470252E+01 0.33279306743E+01 0.33475722601E+01 0.34124976749E+01 0.35151900784E+01
 0.36450650487E+01 0.37888712351E+01 0.39314041696E+01 0.40567499441E+01 0.41501136549E+01
 0.41999632992E+01 0.41999603149E+01 0.41501072707E+01 0.40567451015E+01 0.39314024331E+01
 0.37888675340E+01 0.36450505518E+01 0.35151598013E+01 0.34124569158E+01 0.33475365882E+01
 0.33279184140E+01 0.33577689758E+01 0.34376334532E+01 0.35641152577E+01 0.37295822399E+01
 0.39221208395E+01 0.41259722387E+01 0.43226119732E+01 0.44925449786E+01 0.46177105994E+01
 0.46841167624E+01 0.46841103053E+01 0.46176926378E+01 0.44925180548E+01 0.43225764924E+01
 0.41259254439E+01 0.39220600507E+01 0.37295104605E+01 0.35640440974E+01 0.34375799061E+01
 0.33035136852E+01 0.33279225982E+01 0.33993355724E+01 0.35122864143E+01 0.36576649556E+01
 0.38229274589E+01 0.39926765140E+01 0.41497942842E+01 0.42772452879E+01 0.43603839117E+01
 0.43892717644E+01 0.43603876233E+01 0.42772547719E+01 0.41498118324E+01 0.39927021551E+01
 0.38229575537E+01 0.36576928991E+01 0.35123054741E+01 0.33993421679E+01 0.33279184140E+01
 0.33035052682E+01 0.33279184140E+01 0.33993421679E+01 0.35123054741E+01 0.36576928991E+01
 0.38229575537E+01 0.39927021551E+01 0.41498118324E+01 0.42772547719E+01 0.43603876233E+01
 0.43892717644E+01 0.43603839117E+01 0.42772452879E+01 0.41497942842E+01 0.39926765139E+01
 0.38229274589E+01 0.36576649556E+01 0.35122864143E+01 0.33993355724E+01 0.33279225982E+01
 0.33577470252E+01 0.34375799061E+01 0.35640440974E+01 0.37295104605E+01 0.39220600507E+01
 0.41259254439E+01 0.43225764924E+01 0.44925180548E+01 0.46176926378E+01 0.46841103053E+01
 0.46841167624E+01 0.46177105994E+01 0.44925449786E+01 0.43226119732E+01 0.41259722387E+01
 0.39221208395E+01 0.37295822399E+01 0.35641152577E+01 0.34376334532E+01 0.33577689758E+01
 0.33279184140E+01 0.33475365882E+01 0.34124569158E+01 0.35151598013E+01 0.36450505518E+01
 0.37888675340E+01 0.39314024331E+01 0.40567451015E+01 0.41501072707E+01 0.41999603149E+01
 0.41999632992E+01 0.41501136549E+01 0.40567499441E+01 0.39314041696E+01 0.37888712351E+01
 0.36450650487E+01 0.35151900784E+01 0.34124976749E+01 0.33475722601E+01 0.33279306743E+01
 0.35302892939E+01 0.36762393940E+01 0.38693831347E+01 0.40984589654E+01 0.43472506873E+01
 0.45955762907E+01 0.48210710713E+01 0.50016784371E+01 0.51185791466E+01 0.51590507764E+01
 0.51185877618E+01 0.50016903218E+01 0.48210823085E+01 0.45955913860E+01 0.43472823105E+01
 0.40985190199E+01 0.38694710122E+01 0.36763370746E+01 0.35303682356E+01 0.34376334532E+01
 0.33993421679E+01 0.34124569158E+01 0.34703530239E+01 0.35633890460E+01 0.36794015955E+01
 0.38042993340E+01 0.39229954087E+01 0.40208016233E+01 0.40851954183E+01 0.41076699301E+01
 0.40851991730E+01 0.40208067903E+01 0.39230016330E+01 0.38043119050E+01 0.36794293385E+01
 0.35634362335E+01 0.34704113891E+01 0.34125050442E+01 0.33993551610E+01 0.34375973299E+01
 0.38500635439E+01 0.40812083092E+01 0.43593125282E+01 0.46679120996E+01 0.49851698237E+01
 0.52854522914E+01 0.55418096467E+01 0.57292358870E+01 0.58282866858E+01 0.58282853345E+01
 0.57292273955E+01 0.55417860077E+01 0.52854131630E+01 0.49851295612E+01 0.46678951444E+01
 0.43593390354E+01 0.40812796946E+01 0.38501586711E+01 0.36763370746E+01 0.35641152577E+01
 0.35123054741E+01 0.35151598013E+01 0.35633890460E+01 0.36450387417E+01 0.37462364411E+01
 0.38520617475E+01 0.39477279953E+01 0.40200340539E+01 0.40589251289E+01 0.40589225758E+01
 0.40200271163E+01 0.39477198599E+01 0.38520592996E+01 0.37462481629E+01 0.36450683488E+01
 0.35634288437E+01 0.35151899867E+01 0.35123028109E+01 0.35640670592E+01 0.36762515441E+01
 0.43628973548E+01 0.47056118031E+01 0.50933684566E+01 0.55032244688E+01 0.59062081244E+01
 0.62693965521E+01 0.65593779746E+01 0.67468980190E+01 0.68118049918E+01 0.67468922292E+01
 0.65593545538E+01 0.62693432292E+01 0.59061262045E+01 0.55031344406E+01 0.50933018942E+01
 0.47055945234E+01 0.43629347861E+01 0.40812796946E+01 0.38694710122E+01 0.37295822399E+01
 0.36576928991E+01 0.36450505518E+01 0.36794015955E+01 0.37462364411E+01 0.38299375364E+01
 0.39149932821E+01 0.39873306117E+01 0.40356501194E+01 0.40526037102E+01 0.40356389860E+01
 0.39873128876E+01 0.39149767467E+01 0.38299299328E+01 0.37462404586E+01 0.36794108011E+01
 0.36450499733E+01 0.36576663339E+01 0.37295231935E+01 0.38693907311E+01 0.40812054402E+01
 0.51313318141E+01 0.56226954714E+01 0.61572994636E+01 0.67037046899E+01 0.72221764877E+01
 0.76676969666E+01 0.79957355162E+01 0.81700033349E+01 0.81700109319E+01 0.79957492345E+01
 0.76676955435E+01 0.72221406340E+01 0.67036305802E+01 0.61572034799E+01 0.56226071744E+01
 0.51312794262E+01 0.47055945234E+01 0.43593390354E+01 0.40985190199E+01 0.39221208395E+01
 0.38229575537E+01 0.37888675340E+01 0.38042993340E+01 0.38520617475E+01 0.39149932821E+01
 0.39774534732E+01 0.40266213262E+01 0.40535000936E+01 0.40534938062E+01 0.40266058921E+01
 0.39774369168E+01 0.39149827171E+01 0.38520579262E+01 0.38042948336E+01 0.37888503729E+01
 0.38229190204E+01 0.39220631779E+01 0.40984581997E+01 0.43592994685E+01 0.47055975959E+01
 0.62474887472E+01 0.69496317081E+01 0.76982190474E+01 0.84471989689E+01 0.91361958605E+01
 0.96968304737E+01 0.10064541980E+02 0.10192787968E+02 0.10064576100E+02 0.96968854935E+01
 0.91362491708E+01 0.84472262208E+01 0.76982039199E+01 0.69495741652E+01 0.62474068750E+01
 0.56226071744E+01 0.50933018942E+01 0.46678951444E+01 0.43472823105E+01 0.41259722387E+01
 0.39927021551E+01 0.39314024331E+01 0.39229954087E+01 0.39477279953E+01 0.39873306117E+01
 0.40266213262E+01 0.40545377579E+01 0.40645473971E+01 0.40545274178E+01 0.40266090707E+01
 0.39873256952E+01 0.39477316323E+01 0.39229982913E+01 0.39313913585E+01 0.39926714214E+01
 0.41259310907E+01 0.43472524322E+01 0.46678986531E+01 0.50933477054E+01 0.56226842899E+01
 0.78732342673E+01 0.89045398131E+01 0.99947931013E+01 0.11065262045E+02 0.12012398355E+02
 0.12724905189E+02 0.13108294204E+02 0.13108308067E+02 0.12724949074E+02 0.12012473746E+02
 0.11065358830E+02 0.99948851107E+01 0.89045937074E+01 0.78732279710E+01 0.69495741652E+01
 0.61572034799E+01 0.55031344406E+01 0.49851295612E+01 0.45955913860E+01 0.43226119732E+01
 0.41498118324E+01 0.40567451015E+01 0.40208016233E+01 0.40200340539E+01 0.40356501194E+01
 0.40535000936E+01 0.40645473971E+01 0.40645423321E+01 0.40534902116E+01 0.40356460185E+01
 0.40200406182E+01 0.40208119024E+01 0.40567457387E+01 0.41497964488E+01 0.43225909804E+01
 0.45955885333E+01 0.49851655550E+01 0.55032094113E+01 0.61572916933E+01 0.69496364490E+01
 0.10318270949E+02 0.11896038998E+02 0.13539851530E+02 0.15098386075E+02 0.16391131554E+02
 0.17247757434E+02 0.17547740172E+02 0.17247746504E+02 0.16391133665E+02 0.15098428995E+02
 0.13539941774E+02 0.11896151483E+02 0.10318361694E+02 0.89045937074E+01 0.76982039199E+01
 0.67036305802E+01 0.59061262045E+01 0.52854131630E+01 0.48210823085E+01 0.44925449786E+01
 0.42772547719E+01 0.41501072707E+01 0.40851954183E+01 0.40589251289E+01 0.40526037102E+01
 0.40534938062E+01 0.40545274178E+01 0.40534902116E+01 0.40526012280E+01 0.40589272848E+01
 0.40851993129E+01 0.41501055206E+01 0.42772443398E+01 0.44925348014E+01 0.48210909717E+01
 0.52854552248E+01 0.59061967737E+01 0.67037009590E+01 0.76982351947E+01 0.89045607832E+01
 0.14125151519E+02 0.16565079067E+02 0.19002818221E+02 0.21165807751E+02 0.22786811145E+02
 0.23668991839E+02 0.23668963466E+02 0.22786743111E+02 0.21165741056E+02 0.19002793577E+02
 0.16565113795E+02 0.14125231161E+02 0.11896151483E+02 0.99948851107E+01 0.84472262208E+01
 0.72221406340E+01 0.62693432292E+01 0.55417860077E+01 0.50016903218E+01 0.46177105994E+01
 0.43603876233E+01 0.41999603149E+01 0.41076699301E+01 0.40589225758E+01 0.40356389860E+01
 0.40266058921E+01 0.40266090707E+01 0.40356460185E+01 0.40589272848E+01 0.41076660766E+01
 0.41999461720E+01 0.43603689760E+01 0.46176994166E+01 0.50016982594E+01 0.55418154065E+01
 0.62693816263E+01 0.72221638592E+01 0.84472110363E+01 0.99948245456E+01 0.11896063117E+02
 0.20002502973E+02 0.23577438131E+02 0.27266920101E+02 0.30853516465E+02 0.33555387786E+02
 0.34567026989E+02 0.33555333033E+02 0.30853422807E+02 0.27266815804E+02 0.23577356228E+02
 0.20002469508E+02 0.16565113795E+02 0.13539941774E+02 0.11065358830E+02 0.91362491708E+01
 0.76676955435E+01 0.65593545538E+01 0.57292273955E+01 0.51185877618E+01 0.46841167624E+01
 0.43892717644E+01 0.41999632992E+01 0.40851991730E+01 0.40200271163E+01 0.39873128876E+01
 0.39774369168E+01 0.39873256952E+01 0.40200406182E+01 0.40851993129E+01 0.41999461720E+01
 0.43892477091E+01 0.46841026582E+01 0.51185931424E+01 0.57292449943E+01 0.65593632010E+01
 0.76676739309E+01 0.91361915959E+01 0.11065281551E+02 0.13539876246E+02 0.16565090716E+02
 0.29259521617E+02 0.36700311639E+02 0.45075652838E+02 0.52480138471E+02 0.56841828228E+02
 0.56841823537E+02 0.52480117205E+02 0.45075601462E+02 0.36700227456E+02 0.29259423785E+02
 0.23577356228E+02 0.19002793577E+02 0.15098428995E+02 0.12012473746E+02 0.96968854935E+01
 0.79957492345E+01 0.67468922292E+01 0.58282853345E+01 0.51590507764E+01 0.46841103053E+01
 0.43603839117E+01 0.41501136549E+01 0.40208067903E+01 0.39477198599E+01 0.39149767467E+01
 0.39149827171E+01 0.39477316323E+01 0.40208119024E+01 0.41501055206E+01 0.43603689760E+01
 0.46841026582E+01 0.51590583136E+01 0.58282993936E+01 0.67468913223E+01 0.79957154738E+01
 0.96968219238E+01 0.12012407478E+02 0.15098396888E+02 0.19002818572E+02 0.23577432596E+02
 0.50441007319E+02 0.67031472358E+02 0.83168672599E+02 0.94943673061E+02 0.99259591701E+02
 0.94943710967E+02 0.83168719870E+02 0.67031491326E+02 0.50440976344E+02 0.36700227456E+02
 0.27266815804E+02 0.21165741056E+02 0.16391133665E+02 0.12724949074E+02 0.10064576100E+02
 0.81700109319E+01 0.68118049918E+01 0.58282866858E+01 0.51185791466E+01 0.46176926378E+01
 0.42772452879E+01 0.40567499441E+01 0.39230016330E+01 0.38520592996E+01 0.38299299328E+01
 0.38520579262E+01 0.39229982913E+01 0.40567457387E+01 0.42772443398E+01 0.46176994166E+01
 0.51185931424E+01 0.58282993936E+01 0.68118040258E+01 0.81699899419E+01 0.10064543698E+02
 0.12724927734E+02 0.16391147380E+02 0.21165797559E+02 0.27266898055E+02 0.36700300213E+02
 0.94919681993E+02 0.12407052518E+03 0.14838566852E+03 0.16223017847E+03 0.16223020101E+03
 0.14838572731E+03 0.12407059698E+03 0.94919737956E+02 0.67031491326E+02 0.45075601462E+02
 0.30853422807E+02 0.22786743111E+02 0.17247746504E+02 0.13108308067E+02 0.10192787968E+02
 0.81700033349E+01 0.67468980190E+01 0.57292358870E+01 0.50016784371E+01 0.44925180548E+01
 0.41497942842E+01 0.39314041696E+01 0.38043119050E+01 0.37462481629E+01 0.37462404586E+01
 0.38042948336E+01 0.39313913585E+01 0.41497964488E+01 0.44925348014E+01 0.50016982594E+01
 0.57292449943E+01 0.67468913223E+01 0.81699899419E+01 0.10192786549E+02 0.13108335079E+02
 0.17247804625E+02 0.22786817325E+02 0.30853486947E+02 0.45075630546E+02 0.67031474108E+02
 0.16959271600E+03 0.21150808165E+03 0.24113558336E+03 0.25184119607E+03 0.24113557574E+03
 0.21150808198E+03 0.16959273977E+03 0.12407059698E+03 0.83168719870E+02 0.52480117205E+02
 0.33555333033E+02 0.23668963466E+02 0.17547740172E+02 0.13108294204E+02 0.10064541980E+02
 0.79957355162E+01 0.65593779746E+01 0.55418096467E+01 0.48210710713E+01 0.43225764924E+01
 0.39926765139E+01 0.37888712351E+01 0.36794293385E+01 0.36450683488E+01 0.36794108011E+01
 0.37888503729E+01 0.39926714214E+01 0.43225909804E+01 0.48210909717E+01 0.55418154065E+01
 0.65593632010E+01 0.79957154738E+01 0.10064543698E+02 0.13108335079E+02 0.17547811966E+02
 0.23669035022E+02 0.33555370724E+02 0.52480107416E+02 0.83168677372E+02 0.12407055202E+03
 0.27457906892E+03 0.32590511290E+03 0.35479484195E+03 0.35479480283E+03 0.32590501902E+03
 0.27457897464E+03 0.21150808198E+03 0.14838572731E+03 0.94943710967E+02 0.56841823537E+02
 0.34567026989E+02 0.23668991839E+02 0.17247757434E+02 0.12724905189E+02 0.96968304737E+01
 0.76676969666E+01 0.62693965521E+01 0.52854522914E+01 0.45955762907E+01 0.41259254439E+01
 0.38229274589E+01 0.36450650487E+01 0.35634362335E+01 0.35634288437E+01 0.36450499733E+01
 0.38229190204E+01 0.41259310907E+01 0.45955885333E+01 0.52854552248E+01 0.62693816263E+01
 0.76676739309E+01 0.96968219238E+01 0.12724927734E+02 0.17247804625E+02 0.23669035022E+02
 0.34567035910E+02 0.56841792001E+02 0.94943666410E+02 0.14838571387E+03 0.21150812823E+03
 0.40265297190E+03 0.45656571544E+03 0.47601707211E+03 0.45656561872E+03 0.40265282196E+03
 0.32590501902E+03 0.24113557574E+03 0.16223020101E+03 0.99259591701E+02 0.56841828228E+02
 0.33555387786E+02 0.22786811145E+02 0.16391131554E+02 0.12012398355E+02 0.91361958605E+01
 0.72221764877E+01 0.59062081244E+01 0.49851698237E+01 0.43472506873E+01 0.39220600507E+01
 0.36576649556E+01 0.35151900784E+01 0.34704113891E+01 0.35151899867E+01 0.36576663339E+01
 0.39220631779E+01 0.43472524322E+01 0.49851655550E+01 0.59061967737E+01 0.72221638592E+01
 0.91361915959E+01 0.12012407478E+02 0.16391147380E+02 0.22786817325E+02 0.33555370724E+02
 0.56841792001E+02 0.99259563058E+02 0.16223021709E+03 0.24113565996E+03 0.32590515997E+03
 0.53927699542E+03 0.58592040564E+03 0.58592037120E+03 0.53927690221E+03 0.45656561872E+03
 0.35479480283E+03 0.25184119607E+03 0.16223017847E+03 0.94943673061E+02 0.52480138471E+02
 0.30853516465E+02 0.21165807751E+02 0.15098386075E+02 0.11065262045E+02 0.84471989689E+01
 0.67037046899E+01 0.55032244688E+01 0.46679120996E+01 0.40984589654E+01 0.37295104605E+01
 0.35122864143E+01 0.34124976749E+01 0.34125050442E+01 0.35123028109E+01 0.37295231935E+01
 0.40984581997E+01 0.46678986531E+01 0.55032094113E+01 0.67037009590E+01 0.84472110363E+01
 0.11065281551E+02 0.15098396888E+02 0.21165797559E+02 0.30853486947E+02 0.52480107416E+02
 0.94943666410E+02 0.16223021709E+03 0.25184128435E+03 0.35479492495E+03 0.45656574386E+03
 0.66345773170E+03 0.69152163705E+03 0.66345771594E+03 0.58592037120E+03 0.47601707211E+03
 0.35479484195E+03 0.24113558336E+03 0.14838566852E+03 0.83168672599E+02 0.45075652838E+02
 0.27266920101E+02 0.19002818221E+02 0.13539851530E+02 0.99947931013E+01 0.76982190474E+01
 0.61572994636E+01 0.50933684566E+01 0.43593125282E+01 0.38693831347E+01 0.35640440974E+01
 0.33993355724E+01 0.33475722601E+01 0.33993551610E+01 0.35640670592E+01 0.38693907311E+01
 0.43592994685E+01 0.50933477054E+01 0.61572916933E+01 0.76982351947E+01 0.99948245456E+01
 0.13539876246E+02 0.19002818572E+02 0.27266898055E+02 0.45075630546E+02 0.83168677372E+02
 0.14838571387E+03 0.24113565996E+03 0.35479492495E+03 0.47601713785E+03 0.58592040990E+03
 0.75131345284E+03 0.75131345838E+03 0.69152163705E+03 0.58592040564E+03 0.45656571544E+03
 0.32590511290E+03 0.21150808165E+03 0.12407052518E+03 0.67031472358E+02 0.36700311639E+02
 0.23577438131E+02 0.16565079067E+02 0.11896038998E+02 0.89045398131E+01 0.69496317081E+01
 0.56226954714E+01 0.47056118031E+01 0.40812083092E+01 0.36762393940E+01 0.34375799061E+01
 0.33279225982E+01 0.33279306743E+01 0.34375973299E+01 0.36762515441E+01 0.40812054402E+01
 0.47055975959E+01 0.56226842899E+01 0.69496364490E+01 0.89045607832E+01 0.11896063117E+02
 0.16565090716E+02 0.23577432596E+02 0.36700300213E+02 0.67031474108E+02 0.12407055202E+03
 0.21150812823E+03 0.32590515997E+03 0.45656574386E+03 0.58592040990E+03 0.69152162813E+03
 0.75131345284E+03 0.69152162813E+03 0.58592040990E+03 0.45656574386E+03 0.32590515997E+03
 0.21150812823E+03 0.12407055202E+03 0.67031474108E+02 0.36700300213E+02 0.23577432596E+02
 0.16565090716E+02 0.11896063117E+02 0.89045607832E+01 0.69496364490E+01 0.56226842899E+01
 0.47055975959E+01 0.40812054402E+01 0.36762515441E+01 0.34375973299E+01 0.33279306743E+01
 0.33279225982E+01 0.34375799061E+01 0.36762393940E+01 0.40812083092E+01 0.47056118031E+01
 0.56226954714E+01 0.69496317081E+01 0.89045398131E+01 0.11896038998E+02 0.16565079067E+02