    2    2    1    1
  0.3152455E+02  0.4467501E-09  0.4467501E-09  0.4467501E-09  0.5000000E-15
  1.000000000000000E-004
  CAR 
 unknown system                          
   20   56   16
 
  0.3742002E-15  0.3742002E-15  0.3742002E-15  0.7513148E-03
   1      -15.015423
   2      -15.015423
   3      -15.011262
   4      -15.011252
   5      -15.011252
   6       -5.886970
   7        2.149888
   8        4.736436
   9        4.736436
  10        4.736443
  11       10.192609
  12       10.192609
  13       10.192635
  14       11.625866
  15       11.625876
  16       11.625876
 
  0.9090909E-01  0.3747003E-15  0.3747003E-15  0.6010518E-02
   1      -15.015915
   2      -15.015909
   3      -15.011250
   4      -15.010920
   5      -15.010906
   6       -5.817763
   7        1.750302
   8        4.748268
   9        4.748273
  10        5.025632
  11        9.796977
  12        9.797002
  13        9.816138
  14       11.571531
  15       11.798748
  16       11.798760
 
  0.1818182E+00  0.3608225E-15  0.3608225E-15  0.6010518E-02
   1      -15.017256
   2      -15.017242
   3      -15.011145
   4      -15.009768
   5      -15.009747
   6       -5.616263
   7        0.902497
   8        4.788595
   9        4.788598
  10        5.550786
  11        9.019941
  12        9.019967
  13        9.067575
  14       11.665487
  15       12.281195
  16       12.281208
 
  0.2727273E+00  0.3885781E-15  0.3885781E-15  0.6010518E-02
   1      -15.018803
   2      -15.018784
   3      -15.010644
   4      -15.007651
   5      -15.007624
   6       -5.305627
   7       -0.026910
   8        4.865290
   9        4.865290
  10        6.006199
  11        8.250000
  12        8.250029
  13        8.311577
  14       12.161850
  15       13.044047
  16       13.044060
 
  0.3636364E+00  0.3885781E-15  0.3885781E-15  0.6010518E-02
   1      -15.020234
   2      -15.020212
   3      -15.010169
   4      -15.005792
   5      -15.005762
   6       -4.944277
   7       -0.846339
   8        4.970374
   9        4.970379
  10        6.367371
  11        7.637494
  12        7.637526
  13        7.659402
  14       13.074520
  15       14.056846
  16       14.056855
 
  0.4545455E+00  0.3330669E-15  0.3330669E-15  0.6010518E-02
   1      -15.021260
   2      -15.021238
   3      -15.009842
   4      -15.004703
   5      -15.004673
   6       -4.667043
   7       -1.364235
   8        5.057917
   9        5.057925
  10        6.714153
  11        7.135219
  12        7.285064
  13        7.285100
  14       14.247948
  15       15.258513
  16       15.258516
 
  0.9090909E-01  0.9090909E-01  0.3734198E-15  0.4507889E-02
   1      -15.016892
   2      -15.015169
   3      -15.011559
   4      -15.010590
   5      -15.010583
   6       -5.794806
   7        1.684371
   8        4.569835
   9        4.569840
  10        5.419255
  11        8.935651
  12       10.217539
  13       10.217554
  14       11.135755
  15       12.099819
  16       12.099823
 
  0.1818182E+00  0.9090909E-01  0.3885781E-15  0.1803156E-01
   1      -15.018387
   2      -15.015433
   3      -15.011829
   4      -15.009647
   5      -15.009506
   6       -5.637696
   7        1.091265
   8        4.446833
   9        4.533695
  10        5.933225
  11        8.078180
  12        9.903376
  13        9.907517
  14       11.008654
  15       12.538739
  16       12.646486
 
  0.2727273E+00  0.9090909E-01  0.3885781E-15  0.1803156E-01
   1      -15.020003
   2      -15.016668
   3      -15.011228
   4      -15.008112
   5      -15.007489
   6       -5.363296
   7        0.260517
   8        4.409745
   9        4.617179
  10        6.143922
  11        7.564002
  12        9.220489
  13        9.300816
  14       11.288965
  15       13.144192
  16       13.422774
 
  0.3636364E+00  0.9090909E-01  0.3885781E-15  0.1803156E-01
   1      -15.021354
   2      -15.018463
   3      -15.010537
   4      -15.006698
   5      -15.005590
   6       -5.015547
   7       -0.562044
   8        4.476385
   9        4.671329
  10        5.961762
  11        7.540133
  12        8.516586
  13        8.730711
  14       11.975880
  15       14.035926
  16       14.428825
 
  0.4545455E+00  0.9090909E-01  0.3330669E-15  0.1803156E-01
   1      -15.021997
   2      -15.019779
   3      -15.009637
   4      -15.005420
   5      -15.004298
   6       -4.697757
   7       -1.177509
   8        4.568945
   9        4.646039
  10        5.874158
  11        7.596521
  12        7.921966
  13        8.410998
  14       13.019802
  15       15.152183
  16       15.583381
 
 -0.4545455E+00  0.9090909E-01  0.3330669E-15  0.1803156E-01
   1      -15.021745
   2      -15.020635
   3      -15.009325
   4      -15.004840
   5      -15.004409
   6       -4.593205
   7       -1.361672
   8        4.341877
   9        4.886276
  10        6.082971
  11        7.405159
  12        7.507896
  13        8.557511
  14       14.042125
  15       14.791144
  16       15.114295
 
 -0.3636364E+00  0.9090909E-01  0.3330669E-15  0.1803156E-01
   1      -15.020555
   2      -15.020528
   3      -15.009695
   4      -15.005537
   5      -15.005054
   6       -4.790065
   7       -1.018317
   8        4.150137
   9        5.108993
  10        6.438679
  11        7.185199
  12        7.364338
  13        8.974618
  14       13.088059
  15       13.902074
  16       15.651913
 
 -0.2727273E+00  0.9090909E-01  0.3885781E-15  0.1803156E-01
   1      -15.019851
   2      -15.018783
   3      -15.010334
   4      -15.007400
   5      -15.006249
   6       -5.135064
   7       -0.322012
   8        4.076573
   9        5.191799
  10        6.472947
  11        7.420479
  12        7.592960
  13        9.492375
  14       12.157432
  15       12.918852
  16       14.448515
 
 -0.1818182E+00  0.9090909E-01  0.4163336E-15  0.1803156E-01
   1      -15.018667
   2      -15.017160
   3      -15.011039
   4      -15.009247
   5      -15.007990
   6       -5.466082
   7        0.507255
   8        4.152571
   9        5.112520
  10        6.081120
  11        8.132188
  12        8.176762
  13        9.975265
  14       11.645275
  15       12.220649
  16       13.393848
 
 -0.9090909E-01  0.9090909E-01  0.3608225E-15  0.9015778E-02
   1      -15.017216
   2      -15.016024
   3      -15.011420
   4      -15.010518
   5      -15.009926
   6       -5.704481
   7        1.275615
   8        4.395001
   9        4.943955
  10        5.522736
  11        8.978966
  12        8.993491
  13       10.198448
  14       11.483829
  15       11.840002
  16       12.501321
 
  0.1818182E+00  0.1818182E+00  0.3734198E-15  0.4507889E-02
   1      -15.020213
   2      -15.014213
   3      -15.012480
   4      -15.008545
   5      -15.008539
   6       -5.528320
   7        0.949345
   8        4.171408
   9        4.171412
  10        5.996101
  11        7.822592
  12       10.374917
  13       10.419237
  14       10.419251
  15       13.276780
  16       13.276781
 
  0.2727273E+00  0.1818182E+00  0.3747003E-15  0.1803156E-01
   1      -15.022212
   2      -15.014376
   3      -15.012686
   4      -15.007025
   5      -15.006765
   6       -5.300635
   7        0.449999
   8        4.007324
   9        4.066124
  10        5.364912
  11        8.316769
  12       10.055118
  13       10.216484
  14       10.510517
  15       13.938513
  16       14.027257
 
  0.3636364E+00  0.1818182E+00  0.3747003E-15  0.1803156E-01
   1      -15.023664
   2      -15.015633
   3      -15.012029
   4      -15.005931
   5      -15.004807
   6       -4.989305
   7       -0.223763
   8        3.978552
   9        3.992278
  10        4.862590
  11        8.777291
  12        9.617271
  13        9.786971
  14       10.782022
  15       14.723846
  16       14.983509
 
  0.4545455E+00  0.1818182E+00  0.4163336E-15  0.1803156E-01
   1      -15.024342
   2      -15.017223
   3      -15.010576
   4      -15.005441
   5      -15.003805
   6       -4.672528
   7       -0.836033
   8        3.656050
   9        4.094395
  10        4.877557
  11        8.804457
  12        8.959837
  13        9.747763
  14       11.542104
  15       15.642436
  16       16.055797
 
 -0.4545455E+00  0.1818182E+00  0.3885781E-15  0.1803156E-01
   1      -15.023740
   2      -15.018627
   3      -15.009054
   4      -15.005579
   5      -15.003778
   6       -4.496389
   7       -1.159262
   8        3.306826
   9        4.348900
  10        5.190388
  11        8.361484
  12        8.460243
  13       10.031868
  14       12.669804
  15       14.541344
  16       15.178009
 
 -0.3636364E+00  0.1818182E+00  0.2775558E-15  0.1803156E-01
   1      -15.022324
   2      -15.019703
   3      -15.008560
   4      -15.005820
   5      -15.004904
   6       -4.589215
   7       -1.044495
   8        3.131155
   9        4.710077
  10        5.654052
  11        7.871458
  12        8.051011
  13       10.361705
  14       13.205816
  15       13.993875
  16       14.218927
 
 -0.2727273E+00  0.1818182E+00  0.3330669E-15  0.1803156E-01
   1      -15.020225
   2      -15.019818
   3      -15.009355
   4      -15.006485
   5      -15.005747
   6       -4.879313
   7       -0.589713
   8        3.195380
   9        5.083096
  10        6.220077
  11        7.568132
  12        7.626350
  13       10.553957
  14       12.459292
  15       13.079289
  16       15.433048
 
 -0.1818182E+00  0.1818182E+00  0.4163336E-15  0.9015778E-02
   1      -15.019576
   2      -15.018420
   3      -15.010485
   4      -15.008259
   5      -15.006506
   6       -5.205163
   7       -0.017906
   8        3.540687
   9        5.260279
  10        6.561309
  11        7.456409
  12        7.633849
  13       10.452062
  14       12.001527
  15       12.483345
  16       14.713347
 
  0.2727273E+00  0.2727273E+00  0.3843798E-15  0.4507889E-02
   1      -15.024670
   2      -15.013518
   3      -15.013006
   4      -15.005421
   5      -15.005415
   6       -5.126638
   7        0.401869
   8        3.726485
   9        3.726489
  10        4.394722
  11        9.342299
  12        9.744253
  13       10.827974
  14       10.827989
  15       14.549294
  16       14.879438
 
  0.3636364E+00  0.2727273E+00  0.3608225E-15  0.1803156E-01
   1      -15.026870
   2      -15.013864
   3      -15.013049
   4      -15.004232
   5      -15.003849
   6       -4.870408
   7        0.067437
   8        3.394596
   9        3.596633
  10        3.870545
  11        9.677363
  12       10.158253
  13       10.689642
  14       10.891126
  15       15.264220
  16       15.609426
 
  0.4545455E+00  0.2727273E+00  0.3747003E-15  0.1803156E-01
   1      -15.027639
   2      -15.014315
   3      -15.012815
   4      -15.003832
   5      -15.002893
   6       -4.593036
   7       -0.399111
   8        2.788081
   9        3.630220
  10        4.060292
  11        9.808699
  12       10.114313
  13       10.565404
  14       11.081084
  15       16.016985
  16       16.526518
 
 -0.4545455E+00  0.2727273E+00  0.3330669E-15  0.1803156E-01
   1      -15.026762
   2      -15.015836
   3      -15.010663
   4      -15.004250
   5      -15.002796
   6       -4.399624
   7       -0.776281
   8        2.393978
   9        3.828314
  10        4.432330
  11        9.424055
  12        9.535340
  13       11.303251
  14       11.421052
  15       14.895121
  16       15.480671
 
 -0.3636364E+00  0.2727273E+00  0.3330669E-15  0.1803156E-01
   1      -15.024892
   2      -15.017575
   3      -15.008376
   4      -15.005649
   5      -15.003644
   6       -4.401508
   7       -0.909671
   8        2.304264
   9        4.178435
  10        4.920821
  11        8.720431
  12        9.019315
  13       11.512616
  14       12.512594
  15       13.869178
  16       14.368067
 
 -0.2727273E+00  0.2727273E+00  0.3330669E-15  0.9015778E-02
   1      -15.022486
   2      -15.019085
   3      -15.007771
   4      -15.006693
   5      -15.005154
   6       -4.599129
   7       -0.808862
   8        2.571663
   9        4.639726
  10        5.524907
  11        8.056253
  12        8.367258
  13       11.210199
  14       13.138400
  15       13.557448
  16       14.013180
 
  0.3636364E+00  0.3636364E+00  0.3843798E-15  0.4507889E-02
   1      -15.029415
   2      -15.014847
   3      -15.011833
   4      -15.002784
   5      -15.002778
   6       -4.684300
   7        0.174565
   8        2.744286
   9        3.370853
  10        3.370856
  11        9.311657
  12       11.317853
  13       11.324799
  14       11.324816
  15       15.152860
  16       16.107380
 
  0.4545455E+00  0.3636364E+00  0.3608225E-15  0.1803156E-01
   1      -15.030583
   2      -15.014710
   3      -15.012088
   4      -15.001979
   5      -15.001857
   6       -4.480556
   7        0.035672
   8        2.077602
   9        3.317230
  10        3.448967
  11        9.382119
  12       11.161459
  13       11.255518
  14       12.156034
  15       15.915429
  16       16.457562
 
 -0.4545455E+00  0.3636364E+00  0.3330669E-15  0.1803156E-01
   1      -15.029892
   2      -15.013400
   3      -15.013228
   4      -15.002373
   5      -15.001697
   6       -4.330304
   7       -0.272721
   8        1.721457
   9        3.440093
  10        3.802657
  11        9.829925
  12       10.496667
  13       10.932888
  14       12.497451
  15       15.633808
  16       16.061332
 
 -0.3636364E+00  0.3636364E+00  0.3330669E-15  0.9015778E-02
   1      -15.027675
   2      -15.015225
   3      -15.010860
   4      -15.003775
   5      -15.002367
   6       -4.299185
   7       -0.628727
   8        1.803040
   9        3.734081
  10        4.304013
  11        9.638483
  12        9.810178
  13       11.267220
  14       12.253116
  15       14.704872
  16       15.059225
 
  0.4545455E+00  0.4545455E+00  0.3624598E-15  0.4507889E-02
   1      -15.032160
   2      -15.015278
   3      -15.011128
   4      -15.000990
   5      -15.000984
   6       -4.374444
   7        0.312467
   8        1.555148
   9        3.177680
  10        3.177684
  11        9.093233
  12       11.693362
  13       11.693382
  14       12.921060
  15       15.731240
  16       17.074662
 
 -0.4545455E+00  0.4545455E+00  0.3885781E-15  0.9015778E-02
   1      -15.031844
   2      -15.014812
   3      -15.011648
   4      -15.001164
   5      -15.000885
   6       -4.317597
   7        0.199680
   8        1.389159
   9        3.219175
  10        3.339097
  11        9.277571
  12       11.373413
  13       11.508119
  14       13.069221
  15       16.302275
  16       16.596500
 
  0.2727273E+00  0.1818182E+00  0.9090909E-01  0.1803156E-01
   1      -15.020149
   2      -15.015635
   3      -15.011962
   4      -15.008696
   5      -15.007835
   6       -5.444254
   7        0.594157
   8        3.981464
   9        4.693529
  10        6.103484
  11        7.683066
  12        9.214688
  13       10.272132
  14       11.023018
  15       12.901318
  16       13.630520
 
  0.3636364E+00  0.1818182E+00  0.9090909E-01  0.3606311E-01
   1      -15.021473
   2      -15.016822
   3      -15.011227
   4      -15.007159
   5      -15.006117
   6       -5.148996
   7       -0.076895
   8        3.684195
   9        4.799494
  10        5.799682
  11        7.899321
  12        8.515513
  13       10.215706
  14       11.306565
  15       13.420398
  16       14.776376
 
  0.4545455E+00  0.1818182E+00  0.9090909E-01  0.3606311E-01
   1      -15.022516
   2      -15.018283
   3      -15.010096
   4      -15.006089
   5      -15.004856
   6       -4.811883
   7       -0.738469
   8        3.601816
   9        4.551815
  10        5.763774
  11        7.691081
  12        8.475867
  13        9.930075
  14       11.915386
  15       14.233348
  16       15.863266
 
 -0.4545455E+00  0.1818182E+00  0.9090909E-01  0.3606311E-01
   1      -15.022899
   2      -15.019319
   3      -15.008971
   4      -15.005650
   5      -15.003998
   6       -4.560141
   7       -1.173879
   8        3.675278
   9        4.209551
  10        5.911839
  11        7.310907
  12        8.766884
  13        9.590218
  14       12.931177
  15       14.360493
  16       15.406914
 
  0.3636364E+00  0.2727273E+00  0.9090909E-01  0.1803156E-01
   1      -15.024084
   2      -15.014427
   3      -15.012826
   4      -15.005497
   5      -15.005340
   6       -5.055299
   7        0.080797
   8        3.524956
   9        4.088630
  10        4.733411
  11        9.040002
  12        9.709307
  13       10.062762
  14       11.038496
  15       14.513800
  16       14.968898
 
  0.4545455E+00  0.2727273E+00  0.9090909E-01  0.3606311E-01
   1      -15.025297
   2      -15.015463
   3      -15.011940
   4      -15.004865
   5      -15.003906
   6       -4.755777
   7       -0.407019
   8        3.234829
   9        3.624507
  10        4.889899
  11        8.815062
  12        9.868493
  13       10.333296
  14       11.223164
  15       15.134746
  16       15.740101
 
 -0.4545455E+00  0.2727273E+00  0.9090909E-01  0.3606311E-01
   1      -15.025313
   2      -15.016761
   3      -15.010086
   4      -15.005175
   5      -15.003007
   6       -4.497036
   7       -0.830680
   8        2.990808
   9        3.372622
  10        5.280769
  11        8.199532
  12       10.085895
  13       10.665688
  14       11.626006
  15       14.505985
  16       16.128175
 
 -0.3636364E+00  0.2727273E+00  0.9090909E-01  0.3606311E-01
   1      -15.024563
   2      -15.017907
   3      -15.008301
   4      -15.006377
   5      -15.003116
   6       -4.416163
   7       -0.991438
   8        2.750659
   9        3.556331
  10        5.688966
  11        7.682267
  12        9.816938
  13       10.905274
  14       12.667355
  15       13.279247
  16       15.608730
 
 -0.2727273E+00  0.2727273E+00  0.9090909E-01  0.3606311E-01
   1      -15.023600
   2      -15.018239
   3      -15.008901
   4      -15.006255
   5      -15.004145
   6       -4.571444
   7       -0.822962
   8        2.751520
   9        3.960954
  10        5.954829
  11        7.431256
  12        9.326992
  13       10.955134
  14       12.351607
  15       14.133274
  16       14.617571
 
 -0.1818182E+00  0.2727273E+00  0.9090909E-01  0.1803156E-01
   1      -15.022657
   2      -15.017539
   3      -15.010408
   4      -15.005678
   5      -15.005622
   6       -4.859295
   7       -0.463620
   8        3.063758
   9        4.488496
  10        5.848053
  11        7.697347
  12        8.728497
  13       10.677381
  14       11.841834
  15       13.884683
  16       15.172719
 
  0.4545455E+00  0.3636364E+00  0.9090909E-01  0.1803156E-01
   1      -15.028458
   2      -15.013705
   3      -15.013167
   4      -15.003310
   5      -15.002694
   6       -4.634138
   7       -0.119846
   8        2.756059
   9        3.162889
  10        4.068305
  11        9.704406
  12       10.076822
  13       11.162573
  14       11.474668
  15       15.622581
  16       16.186207
 
 -0.4545455E+00  0.3636364E+00  0.9090909E-01  0.3606311E-01
   1      -15.028416
   2      -15.014156
   3      -15.012404
   4      -15.003622
   5      -15.001744
   6       -4.416734
   7       -0.399287
   8        2.224731
   9        2.990417
  10        4.541438
  11        9.363160
  12       10.140917
  13       11.488408
  14       11.815711
  15       14.971323
  16       16.527520
 
 -0.3636364E+00  0.3636364E+00  0.9090909E-01  0.3606311E-01
   1      -15.027236
   2      -15.015763
   3      -15.010324
   4      -15.005063
   5      -15.001842
   6       -4.310496
   7       -0.653861
   8        2.010624
   9        3.096692
  10        5.071918
  11        8.622289
  12       10.551299
  13       11.590719
  14       11.962257
  15       13.870432
  16       16.133505
 
 -0.2727273E+00  0.3636364E+00  0.9090909E-01  0.1803156E-01
   1      -15.025280
   2      -15.017227
   3      -15.007914
   4      -15.007020
   5      -15.002768
   6       -4.373720
   7       -0.799779
   8        2.189788
   9        3.434982
  10        5.607613
  11        7.899062
  12       10.118491
  13       11.602578
  14       12.643936
  15       13.103737
  16       15.244456
 
 -0.4545455E+00  0.4545455E+00  0.9090909E-01  0.1803156E-01
   1      -15.031009
   2      -15.014261
   3      -15.012359
   4      -15.002026
   5      -15.000974
   6       -4.346205
   7        0.007712
   8        1.632698
   9        2.967012
  10        3.846040
  11        9.503994
  12       10.528840
  13       11.831181
  14       12.698974
  15       15.740587
  16       16.314330
 
 -0.3636364E+00  0.4545455E+00  0.9090909E-01  0.1803156E-01
   1      -15.029652
   2      -15.013639
   3      -15.012678
   4      -15.003235
   5      -15.000998
   6       -4.281963
   7       -0.257125
   8        1.596577
   9        2.884287
  10        4.432522
  11        9.606445
  12       10.075970
  13       11.748413
  14       12.617303
  15       14.731801
  16       16.975594
 
 -0.4545455E+00  0.3636364E+00  0.1818182E+00  0.1803156E-01
   1      -15.025947
   2      -15.015947
   3      -15.010842
   4      -15.005076
   5      -15.002702
   6       -4.507888
   7       -0.587842
   8        2.690359
   9        3.005345
  10        5.448731
  11        8.157626
  12       10.645841
  13       10.654097
  14       11.982740
  15       14.415630
  16       15.777538
 
 -0.3636364E+00  0.3636364E+00  0.1818182E+00  0.3606311E-01
   1      -15.026138
   2      -15.016601
   3      -15.008874
   4      -15.006649
   5      -15.001779
   6       -4.339379
   7       -0.712987
   8        2.434002
   9        2.634545
  10        5.909895
  11        7.661880
  12       11.030203
  13       11.279370
  14       12.356315
  15       13.107967
  16       16.556762
 
 -0.3636364E+00  0.4545455E+00  0.1818182E+00  0.1803156E-01
   1      -15.028210
   2      -15.015059
   3      -15.011151
   4      -15.005073
   5      -15.000941
   6       -4.287659
   7       -0.424152
   8        1.917416
   9        2.489694
  10        5.260078
  11        8.573698
  12       10.543780
  13       12.101419
  14       12.264806
  15       13.838254
  16       16.842912
 
 -0.2727273E+00  0.4545455E+00  0.1818182E+00  0.1803156E-01
   1      -15.027160
   2      -15.015870
   3      -15.008946
   4      -15.006967
   5      -15.000906
   6       -4.257878
   7       -0.539544
   8        1.985472
   9        2.370274
  10        5.871037
  11        7.846813
  12       11.176291
  13       11.757313
  14       12.447170
  15       13.148520
  16       17.298148
