 vasp.5.3.3 18Dez12 (build Jan 07 2018 16:34:56) complex                        
  
 executed on             LinuxIFC date 2018.06.20  05:25:38
 running on   24 total cores
 distrk:  each k-point on   24 cores,    1 groups
 distr:  one band on NCORES_PER_BAND=   6 cores,    4 groups


--------------------------------------------------------------------------------------------------------


 INCAR:
 POTCAR:    PAW_PBE Sn_d 06Sep2000                
 POTCAR:    PAW_PBE Te 08Apr2002                  
 POTCAR:    PAW_PBE Sn_d 06Sep2000                
   VRHFIN =Sn: s2p2                                                             
   LEXCH  = PE                                                                  
   EATOM  =  1893.1092 eV,  139.1396 Ry                                         
                                                                                
   TITEL  = PAW_PBE Sn_d 06Sep2000                                              
   LULTRA =        F    use ultrasoft PP ?                                      
   IUNSCR =        1    unscreen: 0-lin 1-nonlin 2-no                           
   RPACOR =    2.300    partial core radius                                     
   POMASS =  118.710; ZVAL   =   14.000    mass and valenz                      
   RCORE  =    2.500    outmost cutoff radius                                   
   RWIGS  =    2.960; RWIGS  =    1.566    wigner-seitz radius (au A)           
   ENMAX  =  241.083; ENMIN  =  180.812 eV                                      
   ICORE  =        3    local potential                                         
   LCOR   =        T    correct aug charges                                     
   LPAW   =        T    paw PP                                                  
   EAUG   =  439.825                                                            
   DEXC   =    0.000                                                            
   RMAX   =    2.560    core radius for proj-oper                               
   RAUG   =    1.300    factor for augmentation sphere                          
   RDEP   =    2.659    radius for radial grids                                 
   RDEPT  =    2.046    core radius for aug-charge                              
                                                                                
   Atomic configuration                                                         
   12 entries                                                                   
     n  l   j            E        occ.                                          
     1  0  0.50    -29007.2859   2.0000                                         
     2  0  0.50     -4378.8056   2.0000                                         
     2  1  1.50     -3930.4293   6.0000                                         
     3  0  0.50      -845.0264   2.0000                                         
     3  1  1.50      -698.5725   6.0000                                         
     3  2  2.50      -473.2839  10.0000                                         
     4  0  0.50      -133.9036   2.0000                                         
     4  1  1.50       -89.6752   6.0000                                         
     4  2  2.50       -25.8375  10.0000                                         
     5  0  0.50       -10.5484   2.0000                                         
     5  1  0.50        -3.6940   2.0000                                         
     4  3  2.50        -2.7416   0.0000                                         
   Description                                                                  
     l       E           TYP  RCUT    TYP  RCUT                                 
     2    -25.8374624     23  2.500                                             
     2     -5.4423304     23  2.500                                             
     0    -10.5483727     23  2.500                                             
     0     13.6058260     23  2.500                                             
     1     -3.6939829     23  2.500                                             
     1      1.9821976     23  2.500                                             
     3     -1.3605826      7  2.500                                             
  local pseudopotential read in
  partial core-charges read in
  partial kinetic energy density read in
  atomic valenz-charges read in
  non local Contribution for L=           2  read in
    real space projection operators read in
  non local Contribution for L=           2  read in
    real space projection operators read in
  non local Contribution for L=           0  read in
    real space projection operators read in
  non local Contribution for L=           0  read in
    real space projection operators read in
  non local Contribution for L=           1  read in
    real space projection operators read in
  non local Contribution for L=           1  read in
    real space projection operators read in
    PAW grid and wavefunctions read in
 
   number of l-projection  operators is LMAX  =           6
   number of lm-projection operators is LMMAX =          18
 
 POTCAR:    PAW_PBE Te 08Apr2002                  
   VRHFIN =Te: s2p4                                                             
   LEXCH  = PE                                                                  
   EATOM  =   223.2721 eV,   16.4100 Ry                                         
                                                                                
   TITEL  = PAW_PBE Te 08Apr2002                                                
   LULTRA =        F    use ultrasoft PP ?                                      
   IUNSCR =        1    unscreen: 0-lin 1-nonlin 2-no                           
   RPACOR =    2.200    partial core radius                                     
   POMASS =  127.600; ZVAL   =    6.000    mass and valenz                      
   RCORE  =    2.300    outmost cutoff radius                                   
   RWIGS  =    2.900; RWIGS  =    1.535    wigner-seitz radius (au A)           
   ENMAX  =  174.982; ENMIN  =  131.236 eV                                      
   ICORE  =        3    local potential                                         
   LCOR   =        T    correct aug charges                                     
   LPAW   =        T    paw PP                                                  
   EAUG   =  368.792                                                            
   DEXC   =    0.000                                                            
   RMAX   =    2.345    core radius for proj-oper                               
   RAUG   =    1.300    factor for augmentation sphere                          
   RDEP   =    2.397    radius for radial grids                                 
   RDEPT  =    2.174    core radius for aug-charge                              
                                                                                
   Atomic configuration                                                         
   13 entries                                                                   
     n  l   j            E        occ.                                          
     1  0  0.50    -31621.2075   2.0000                                         
     2  0  0.50     -4848.7941   2.0000                                         
     2  1  1.50     -4352.1960   6.0000                                         
     3  0  0.50      -964.9612   2.0000                                         
     3  1  1.50      -803.6179   6.0000                                         
     3  2  2.50      -559.8710  10.0000                                         
     4  0  0.50      -164.3522   2.0000                                         
     4  1  1.50      -114.3756   6.0000                                         
     4  2  2.50       -41.6483  10.0000                                         
     5  0  0.50       -15.1072   2.0000                                         
     5  1  0.50        -5.9526   4.0000                                         
     5  2  1.50        -5.4423   0.0000                                         
     4  3  2.50        -5.4423   0.0000                                         
   Description                                                                  
     l       E           TYP  RCUT    TYP  RCUT                                 
     0    -15.1072389     23  2.300                                             
     0    -16.4678215     23  2.300                                             
     1     -5.9526306     23  2.300                                             
     1     -2.4873968     23  2.300                                             
     2     -5.4423304     23  2.300                                             
     3     -1.3605826     23  2.300                                             
  local pseudopotential read in
  partial core-charges read in
  partial kinetic energy density read in
  atomic valenz-charges read in
  non local Contribution for L=           0  read in
    real space projection operators read in
  non local Contribution for L=           0  read in
    real space projection operators read in
  non local Contribution for L=           1  read in
    real space projection operators read in
  non local Contribution for L=           1  read in
    real space projection operators read in
  non local Contribution for L=           2  read in
    real space projection operators read in
    PAW grid and wavefunctions read in
 
   number of l-projection  operators is LMAX  =           5
   number of lm-projection operators is LMMAX =          13
 
  PAW_PBE Sn_d 06Sep2000                :
 energy of atom  1       EATOM=-1893.1092
 kinetic energy error for atom=    0.0334 (will be added to EATOM!!)
  PAW_PBE Te 08Apr2002                  :
 energy of atom  2       EATOM= -223.2721
 kinetic energy error for atom=    0.0026 (will be added to EATOM!!)
 
 
 POSCAR: Sn Te                                   
  positions in direct lattice
  No initial velocities read in
 exchange correlation table for  LEXCH =        8
   RHO(1)=    0.500       N(1)  =     2000
   RHO(2)=  100.500       N(2)  =     4000
 


--------------------------------------------------------------------------------------------------------


 ion  position               nearest neighbor table
   1  0.000  0.000  0.000-   2 3.16   2 3.16   2 3.16   2 3.16   2 3.16   2 3.16
   2  0.500  0.500  0.500-   1 3.16   1 3.16   1 3.16   1 3.16   1 3.16   1 3.16
 
  LATTYP: Found a face centered cubic cell.
 ALAT       =     6.3180001411
  
  Lattice vectors:
  
 A1 = (   0.0000000000,   3.1590000705,   3.1590000705)
 A2 = (   3.1590000705,   0.0000000000,   3.1590000705)
 A3 = (   3.1590000705,   3.1590000705,   0.0000000000)


Analysis of symmetry for initial positions (statically):
=====================================================================
 Subroutine PRICEL returns:
 Original cell was already a primitive cell.
 

 Routine SETGRP: Setting up the symmetry group for a 
 face centered cubic supercell.


 Subroutine GETGRP returns: Found 48 space group operations
 (whereof 48 operations were pure point group operations)
 out of a pool of 48 trial point group operations.


The static configuration has the point symmetry O_h .


Analysis of symmetry for dynamics (positions and initial velocities):
=====================================================================
 Subroutine PRICEL returns:
 Original cell was already a primitive cell.
 

 Routine SETGRP: Setting up the symmetry group for a 
 face centered cubic supercell.


 Subroutine GETGRP returns: Found 48 space group operations
 (whereof 48 operations were pure point group operations)
 out of a pool of 48 trial point group operations.


The dynamic configuration has the point symmetry O_h .


 irot  :   1
 --------------------------------------------------------------------
 isymop:   1   0   0
           0   1   0
           0   0   1

 gtrans:     0.0000000     0.0000000     0.0000000

 ptrans:     0.0000000     0.0000000     0.0000000
 rotmap:
 (   1->   1)  (   2->   2) 


 irot  :   2
 --------------------------------------------------------------------
 isymop:  -1   0   0
           0  -1   0
           0   0  -1

 gtrans:     0.0000000     0.0000000     0.0000000

 ptrans:     0.0000000     0.0000000     0.0000000
 rotmap:
 (   1->   1)  (   2->   2) 


 irot  :   3
 --------------------------------------------------------------------
 isymop:   0   0   1
           1   0   0
           0   1   0

 gtrans:     0.0000000     0.0000000     0.0000000

 ptrans:     0.0000000     0.0000000     0.0000000
 rotmap:
 (   1->   1)  (   2->   2) 


 irot  :   4
 --------------------------------------------------------------------
 isymop:   0   0  -1
          -1   0   0
           0  -1   0

 gtrans:     0.0000000     0.0000000     0.0000000

 ptrans:     0.0000000     0.0000000     0.0000000
 rotmap:
 (   1->   1)  (   2->   2) 


 irot  :   5
 --------------------------------------------------------------------
 isymop:   0   1   0
           0   0   1
           1   0   0

 gtrans:     0.0000000     0.0000000     0.0000000

 ptrans:     0.0000000     0.0000000     0.0000000
 rotmap:
 (   1->   1)  (   2->   2) 


 irot  :   6
 --------------------------------------------------------------------
 isymop:   0  -1   0
           0   0  -1
          -1   0   0

 gtrans:     0.0000000     0.0000000     0.0000000

 ptrans:     0.0000000     0.0000000     0.0000000
 rotmap:
 (   1->   1)  (   2->   2) 


 irot  :   7
 --------------------------------------------------------------------
 isymop:   1   1   1
           0   0  -1
          -1   0   0

 gtrans:     0.0000000     0.0000000     0.0000000

 ptrans:     0.0000000     0.0000000     0.0000000
 rotmap:
 (   1->   1)  (   2->   2) 


 irot  :   8
 --------------------------------------------------------------------
 isymop:  -1  -1  -1
           0   0   1
           1   0   0

 gtrans:     0.0000000     0.0000000     0.0000000

 ptrans:     0.0000000     0.0000000     0.0000000
 rotmap:
 (   1->   1)  (   2->   2) 


 irot  :   9
 --------------------------------------------------------------------
 isymop:   1   1   1
           0  -1   0
           0   0  -1

 gtrans:     0.0000000     0.0000000     0.0000000

 ptrans:     0.0000000     0.0000000     0.0000000
 rotmap:
 (   1->   1)  (   2->   2) 


 irot  :  10
 --------------------------------------------------------------------
 isymop:  -1  -1  -1
           0   1   0
           0   0   1

 gtrans:     0.0000000     0.0000000     0.0000000

 ptrans:     0.0000000     0.0000000     0.0000000
 rotmap:
 (   1->   1)  (   2->   2) 


 irot  :  11
 --------------------------------------------------------------------
 isymop:   1   1   1
          -1   0   0
           0  -1   0

 gtrans:     0.0000000     0.0000000     0.0000000

 ptrans:     0.0000000     0.0000000     0.0000000
 rotmap:
 (   1->   1)  (   2->   2) 


 irot  :  12
 --------------------------------------------------------------------
 isymop:  -1  -1  -1
           1   0   0
           0   1   0

 gtrans:     0.0000000     0.0000000     0.0000000

 ptrans:     0.0000000     0.0000000     0.0000000
 rotmap:
 (   1->   1)  (   2->   2) 


 irot  :  13
 --------------------------------------------------------------------
 isymop:   0   1   0
           1   0   0
          -1  -1  -1

 gtrans:     0.0000000     0.0000000     0.0000000

 ptrans:     0.0000000     0.0000000     0.0000000
 rotmap:
 (   1->   1)  (   2->   2) 


 irot  :  14
 --------------------------------------------------------------------
 isymop:   0  -1   0
          -1   0   0
           1   1   1

 gtrans:     0.0000000     0.0000000     0.0000000

 ptrans:     0.0000000     0.0000000     0.0000000
 rotmap:
 (   1->   1)  (   2->   2) 


 irot  :  15
 --------------------------------------------------------------------
 isymop:   1   0   0
           0   0   1
          -1  -1  -1

 gtrans:     0.0000000     0.0000000     0.0000000

 ptrans:     0.0000000     0.0000000     0.0000000
 rotmap:
 (   1->   1)  (   2->   2) 


 irot  :  16
 --------------------------------------------------------------------
 isymop:  -1   0   0
           0   0  -1
           1   1   1

 gtrans:     0.0000000     0.0000000     0.0000000

 ptrans:     0.0000000     0.0000000     0.0000000
 rotmap:
 (   1->   1)  (   2->   2) 


 irot  :  17
 --------------------------------------------------------------------
 isymop:   0   0   1
           0   1   0
          -1  -1  -1

 gtrans:     0.0000000     0.0000000     0.0000000

 ptrans:     0.0000000     0.0000000     0.0000000
 rotmap:
 (   1->   1)  (   2->   2) 


 irot  :  18
 --------------------------------------------------------------------
 isymop:   0   0  -1
           0  -1   0
           1   1   1

 gtrans:     0.0000000     0.0000000     0.0000000

 ptrans:     0.0000000     0.0000000     0.0000000
 rotmap:
 (   1->   1)  (   2->   2) 


 irot  :  19
 --------------------------------------------------------------------
 isymop:   0   0  -1
           1   1   1
           0  -1   0

 gtrans:     0.0000000     0.0000000     0.0000000

 ptrans:     0.0000000     0.0000000     0.0000000
 rotmap:
 (   1->   1)  (   2->   2) 


 irot  :  20
 --------------------------------------------------------------------
 isymop:   0   0   1
          -1  -1  -1
           0   1   0

 gtrans:     0.0000000     0.0000000     0.0000000

 ptrans:     0.0000000     0.0000000     0.0000000
 rotmap:
 (   1->   1)  (   2->   2) 


 irot  :  21
 --------------------------------------------------------------------
 isymop:   0  -1   0
           1   1   1
          -1   0   0

 gtrans:     0.0000000     0.0000000     0.0000000

 ptrans:     0.0000000     0.0000000     0.0000000
 rotmap:
 (   1->   1)  (   2->   2) 


 irot  :  22
 --------------------------------------------------------------------
 isymop:   0   1   0
          -1  -1  -1
           1   0   0

 gtrans:     0.0000000     0.0000000     0.0000000

 ptrans:     0.0000000     0.0000000     0.0000000
 rotmap:
 (   1->   1)  (   2->   2) 


 irot  :  23
 --------------------------------------------------------------------
 isymop:  -1   0   0
           1   1   1
           0   0  -1

 gtrans:     0.0000000     0.0000000     0.0000000

 ptrans:     0.0000000     0.0000000     0.0000000
 rotmap:
 (   1->   1)  (   2->   2) 


 irot  :  24
 --------------------------------------------------------------------
 isymop:   1   0   0
          -1  -1  -1
           0   0   1

 gtrans:     0.0000000     0.0000000     0.0000000

 ptrans:     0.0000000     0.0000000     0.0000000
 rotmap:
 (   1->   1)  (   2->   2) 


 irot  :  25
 --------------------------------------------------------------------
 isymop:  -1  -1  -1
           0   1   0
           1   0   0

 gtrans:     0.0000000     0.0000000     0.0000000

 ptrans:     0.0000000     0.0000000     0.0000000
 rotmap:
 (   1->   1)  (   2->   2) 


 irot  :  26
 --------------------------------------------------------------------
 isymop:   1   1   1
           0  -1   0
          -1   0   0

 gtrans:     0.0000000     0.0000000     0.0000000

 ptrans:     0.0000000     0.0000000     0.0000000
 rotmap:
 (   1->   1)  (   2->   2) 


 irot  :  27
 --------------------------------------------------------------------
 isymop:  -1  -1  -1
           1   0   0
           0   0   1

 gtrans:     0.0000000     0.0000000     0.0000000

 ptrans:     0.0000000     0.0000000     0.0000000
 rotmap:
 (   1->   1)  (   2->   2) 


 irot  :  28
 --------------------------------------------------------------------
 isymop:   1   1   1
          -1   0   0
           0   0  -1

 gtrans:     0.0000000     0.0000000     0.0000000

 ptrans:     0.0000000     0.0000000     0.0000000
 rotmap:
 (   1->   1)  (   2->   2) 


 irot  :  29
 --------------------------------------------------------------------
 isymop:  -1  -1  -1
           0   0   1
           0   1   0

 gtrans:     0.0000000     0.0000000     0.0000000

 ptrans:     0.0000000     0.0000000     0.0000000
 rotmap:
 (   1->   1)  (   2->   2) 


 irot  :  30
 --------------------------------------------------------------------
 isymop:   1   1   1
           0   0  -1
           0  -1   0

 gtrans:     0.0000000     0.0000000     0.0000000

 ptrans:     0.0000000     0.0000000     0.0000000
 rotmap:
 (   1->   1)  (   2->   2) 


 irot  :  31
 --------------------------------------------------------------------
 isymop:   0  -1   0
           0   0  -1
           1   1   1

 gtrans:     0.0000000     0.0000000     0.0000000

 ptrans:     0.0000000     0.0000000     0.0000000
 rotmap:
 (   1->   1)  (   2->   2) 


 irot  :  32
 --------------------------------------------------------------------
 isymop:   0   1   0
           0   0   1
          -1  -1  -1

 gtrans:     0.0000000     0.0000000     0.0000000

 ptrans:     0.0000000     0.0000000     0.0000000
 rotmap:
 (   1->   1)  (   2->   2) 


 irot  :  33
 --------------------------------------------------------------------
 isymop:  -1   0   0
           0  -1   0
           1   1   1

 gtrans:     0.0000000     0.0000000     0.0000000

 ptrans:     0.0000000     0.0000000     0.0000000
 rotmap:
 (   1->   1)  (   2->   2) 


 irot  :  34
 --------------------------------------------------------------------
 isymop:   1   0   0
           0   1   0
          -1  -1  -1

 gtrans:     0.0000000     0.0000000     0.0000000

 ptrans:     0.0000000     0.0000000     0.0000000
 rotmap:
 (   1->   1)  (   2->   2) 


 irot  :  35
 --------------------------------------------------------------------
 isymop:   0   0  -1
          -1   0   0
           1   1   1

 gtrans:     0.0000000     0.0000000     0.0000000

 ptrans:     0.0000000     0.0000000     0.0000000
 rotmap:
 (   1->   1)  (   2->   2) 


 irot  :  36
 --------------------------------------------------------------------
 isymop:   0   0   1
           1   0   0
          -1  -1  -1

 gtrans:     0.0000000     0.0000000     0.0000000

 ptrans:     0.0000000     0.0000000     0.0000000
 rotmap:
 (   1->   1)  (   2->   2) 


 irot  :  37
 --------------------------------------------------------------------
 isymop:   1   0   0
          -1  -1  -1
           0   1   0

 gtrans:     0.0000000     0.0000000     0.0000000

 ptrans:     0.0000000     0.0000000     0.0000000
 rotmap:
 (   1->   1)  (   2->   2) 


 irot  :  38
 --------------------------------------------------------------------
 isymop:  -1   0   0
           1   1   1
           0  -1   0

 gtrans:     0.0000000     0.0000000     0.0000000

 ptrans:     0.0000000     0.0000000     0.0000000
 rotmap:
 (   1->   1)  (   2->   2) 


 irot  :  39
 --------------------------------------------------------------------
 isymop:   0   0   1
          -1  -1  -1
           1   0   0

 gtrans:     0.0000000     0.0000000     0.0000000

 ptrans:     0.0000000     0.0000000     0.0000000
 rotmap:
 (   1->   1)  (   2->   2) 


 irot  :  40
 --------------------------------------------------------------------
 isymop:   0   0  -1
           1   1   1
          -1   0   0

 gtrans:     0.0000000     0.0000000     0.0000000

 ptrans:     0.0000000     0.0000000     0.0000000
 rotmap:
 (   1->   1)  (   2->   2) 


 irot  :  41
 --------------------------------------------------------------------
 isymop:   0   1   0
          -1  -1  -1
           0   0   1

 gtrans:     0.0000000     0.0000000     0.0000000

 ptrans:     0.0000000     0.0000000     0.0000000
 rotmap:
 (   1->   1)  (   2->   2) 


 irot  :  42
 --------------------------------------------------------------------
 isymop:   0  -1   0
           1   1   1
           0   0  -1

 gtrans:     0.0000000     0.0000000     0.0000000

 ptrans:     0.0000000     0.0000000     0.0000000
 rotmap:
 (   1->   1)  (   2->   2) 


 irot  :  43
 --------------------------------------------------------------------
 isymop:  -1   0   0
           0   0  -1
           0  -1   0

 gtrans:     0.0000000     0.0000000     0.0000000

 ptrans:     0.0000000     0.0000000     0.0000000
 rotmap:
 (   1->   1)  (   2->   2) 


 irot  :  44
 --------------------------------------------------------------------
 isymop:   1   0   0
           0   0   1
           0   1   0

 gtrans:     0.0000000     0.0000000     0.0000000

 ptrans:     0.0000000     0.0000000     0.0000000
 rotmap:
 (   1->   1)  (   2->   2) 


 irot  :  45
 --------------------------------------------------------------------
 isymop:   0  -1   0
          -1   0   0
           0   0  -1

 gtrans:     0.0000000     0.0000000     0.0000000

 ptrans:     0.0000000     0.0000000     0.0000000
 rotmap:
 (   1->   1)  (   2->   2) 


 irot  :  46
 --------------------------------------------------------------------
 isymop:   0   1   0
           1   0   0
           0   0   1

 gtrans:     0.0000000     0.0000000     0.0000000

 ptrans:     0.0000000     0.0000000     0.0000000
 rotmap:
 (   1->   1)  (   2->   2) 


 irot  :  47
 --------------------------------------------------------------------
 isymop:   0   0  -1
           0  -1   0
          -1   0   0

 gtrans:     0.0000000     0.0000000     0.0000000

 ptrans:     0.0000000     0.0000000     0.0000000
 rotmap:
 (   1->   1)  (   2->   2) 


 irot  :  48
 --------------------------------------------------------------------
 isymop:   0   0   1
           0   1   0
           1   0   0

 gtrans:     0.0000000     0.0000000     0.0000000

 ptrans:     0.0000000     0.0000000     0.0000000
 rotmap:
 (   1->   1)  (   2->   2) 
 
 
 KPOINTS: Automatic kpoint scheme                 

Automatic generation of k-mesh.
 generate k-points for:   11   11   11
Space group operators:
 irot       det(A)        alpha          n_x          n_y          n_z        tau_x        tau_y        tau_z
    1     1.000000     0.000001     1.000000     0.000000     0.000000     0.000000     0.000000     0.000000
    2    -1.000000     0.000001     1.000000     0.000000     0.000000     0.000000     0.000000     0.000000
    3     1.000000   120.000000    -0.577350    -0.577350    -0.577350     0.000000     0.000000     0.000000
    4    -1.000000   120.000000    -0.577350    -0.577350    -0.577350     0.000000     0.000000     0.000000
    5     1.000000   120.000000     0.577350     0.577350     0.577350     0.000000     0.000000     0.000000
    6    -1.000000   120.000000     0.577350     0.577350     0.577350     0.000000     0.000000     0.000000
    7     1.000000    90.000000     0.000000     0.000000    -1.000000     0.000000     0.000000     0.000000
    8    -1.000000    90.000000     0.000000     0.000000    -1.000000     0.000000     0.000000     0.000000
    9     1.000000   180.000000     0.000000     0.707107     0.707107     0.000000     0.000000     0.000000
   10    -1.000000   180.000000     0.000000     0.707107     0.707107     0.000000     0.000000     0.000000
   11     1.000000    90.000000     0.000000     1.000000     0.000000     0.000000     0.000000     0.000000
   12    -1.000000    90.000000     0.000000     1.000000     0.000000     0.000000     0.000000     0.000000
   13     1.000000   180.000000     0.000000     0.000000     1.000000     0.000000     0.000000     0.000000
   14    -1.000000   180.000000     0.000000     0.000000     1.000000     0.000000     0.000000     0.000000
   15     1.000000   120.000000    -0.577350     0.577350     0.577350     0.000000     0.000000     0.000000
   16    -1.000000   120.000000    -0.577350     0.577350     0.577350     0.000000     0.000000     0.000000
   17     1.000000   120.000000    -0.577350     0.577350    -0.577350     0.000000     0.000000     0.000000
   18    -1.000000   120.000000    -0.577350     0.577350    -0.577350     0.000000     0.000000     0.000000
   19     1.000000    90.000000     0.000000     0.000000     1.000000     0.000000     0.000000     0.000000
   20    -1.000000    90.000000     0.000000     0.000000     1.000000     0.000000     0.000000     0.000000
   21     1.000000    90.000000    -1.000000     0.000000     0.000000     0.000000     0.000000     0.000000
   22    -1.000000    90.000000    -1.000000     0.000000     0.000000     0.000000     0.000000     0.000000
   23     1.000000   180.000000     0.707107     0.000000     0.707107     0.000000     0.000000     0.000000
   24    -1.000000   180.000000     0.707107     0.000000     0.707107     0.000000     0.000000     0.000000
   25     1.000000   120.000000     0.577350    -0.577350     0.577350     0.000000     0.000000     0.000000
   26    -1.000000   120.000000     0.577350    -0.577350     0.577350     0.000000     0.000000     0.000000
   27     1.000000   120.000000    -0.577350    -0.577350     0.577350     0.000000     0.000000     0.000000
   28    -1.000000   120.000000    -0.577350    -0.577350     0.577350     0.000000     0.000000     0.000000
   29     1.000000   180.000000     1.000000     0.000000     0.000000     0.000000     0.000000     0.000000
   30    -1.000000   180.000000     1.000000     0.000000     0.000000     0.000000     0.000000     0.000000
   31     1.000000    90.000000     0.000000    -1.000000     0.000000     0.000000     0.000000     0.000000
   32    -1.000000    90.000000     0.000000    -1.000000     0.000000     0.000000     0.000000     0.000000
   33     1.000000   180.000000     0.707107     0.707107     0.000000     0.000000     0.000000     0.000000
   34    -1.000000   180.000000     0.707107     0.707107     0.000000     0.000000     0.000000     0.000000
   35     1.000000    90.000000     1.000000     0.000000     0.000000     0.000000     0.000000     0.000000
   36    -1.000000    90.000000     1.000000     0.000000     0.000000     0.000000     0.000000     0.000000
   37     1.000000   120.000000     0.577350    -0.577350    -0.577350     0.000000     0.000000     0.000000
   38    -1.000000   120.000000     0.577350    -0.577350    -0.577350     0.000000     0.000000     0.000000
   39     1.000000   180.000000     0.000000     1.000000     0.000000     0.000000     0.000000     0.000000
   40    -1.000000   180.000000     0.000000     1.000000     0.000000     0.000000     0.000000     0.000000
   41     1.000000   120.000000     0.577350     0.577350    -0.577350     0.000000     0.000000     0.000000
   42    -1.000000   120.000000     0.577350     0.577350    -0.577350     0.000000     0.000000     0.000000
   43     1.000000   180.000000     0.000000    -0.707107     0.707107     0.000000     0.000000     0.000000
   44    -1.000000   180.000000     0.000000    -0.707107     0.707107     0.000000     0.000000     0.000000
   45     1.000000   180.000000     0.707107    -0.707107     0.000000     0.000000     0.000000     0.000000
   46    -1.000000   180.000000     0.707107    -0.707107     0.000000     0.000000     0.000000     0.000000
   47     1.000000   180.000000     0.707107     0.000000    -0.707107     0.000000     0.000000     0.000000
   48    -1.000000   180.000000     0.707107     0.000000    -0.707107     0.000000     0.000000     0.000000
 
 Subroutine IBZKPT returns following result:
 ===========================================
 
 Found     56 irreducible k-points:
 
 Following reciprocal coordinates:
            Coordinates               Weight
  0.000000  0.000000  0.000000      1.000000
  0.090909  0.000000  0.000000      8.000000
  0.181818  0.000000  0.000000      8.000000
  0.272727  0.000000  0.000000      8.000000
  0.363636  0.000000  0.000000      8.000000
  0.454545  0.000000  0.000000      8.000000
  0.090909  0.090909  0.000000      6.000000
  0.181818  0.090909  0.000000     24.000000
  0.272727  0.090909  0.000000     24.000000
  0.363636  0.090909  0.000000     24.000000
  0.454545  0.090909  0.000000     24.000000
 -0.454545  0.090909  0.000000     24.000000
 -0.363636  0.090909  0.000000     24.000000
 -0.272727  0.090909  0.000000     24.000000
 -0.181818  0.090909  0.000000     24.000000
 -0.090909  0.090909  0.000000     12.000000
  0.181818  0.181818  0.000000      6.000000
  0.272727  0.181818  0.000000     24.000000
  0.363636  0.181818  0.000000     24.000000
  0.454545  0.181818  0.000000     24.000000
 -0.454545  0.181818  0.000000     24.000000
 -0.363636  0.181818  0.000000     24.000000
 -0.272727  0.181818  0.000000     24.000000
 -0.181818  0.181818  0.000000     12.000000
  0.272727  0.272727  0.000000      6.000000
  0.363636  0.272727  0.000000     24.000000
  0.454545  0.272727  0.000000     24.000000
 -0.454545  0.272727  0.000000     24.000000
 -0.363636  0.272727  0.000000     24.000000
 -0.272727  0.272727  0.000000     12.000000
  0.363636  0.363636  0.000000      6.000000
  0.454545  0.363636  0.000000     24.000000
 -0.454545  0.363636  0.000000     24.000000
 -0.363636  0.363636  0.000000     12.000000
  0.454545  0.454545  0.000000      6.000000
 -0.454545  0.454545  0.000000     12.000000
  0.272727  0.181818  0.090909     24.000000
  0.363636  0.181818  0.090909     48.000000
  0.454545  0.181818  0.090909     48.000000
 -0.454545  0.181818  0.090909     48.000000
  0.363636  0.272727  0.090909     24.000000
  0.454545  0.272727  0.090909     48.000000
 -0.454545  0.272727  0.090909     48.000000
 -0.363636  0.272727  0.090909     48.000000
 -0.272727  0.272727  0.090909     48.000000
 -0.181818  0.272727  0.090909     24.000000
  0.454545  0.363636  0.090909     24.000000
 -0.454545  0.363636  0.090909     48.000000
 -0.363636  0.363636  0.090909     48.000000
 -0.272727  0.363636  0.090909     24.000000
 -0.454545  0.454545  0.090909     24.000000
 -0.363636  0.454545  0.090909     24.000000
 -0.454545  0.363636  0.181818     24.000000
 -0.363636  0.363636  0.181818     48.000000
 -0.363636  0.454545  0.181818     24.000000
 -0.272727  0.454545  0.181818     24.000000
 
 Following cartesian coordinates:
            Coordinates               Weight
  0.000000  0.000000  0.000000      1.000000
 -0.014389  0.014389  0.014389      8.000000
 -0.028778  0.028778  0.028778      8.000000
 -0.043167  0.043167  0.043167      8.000000
 -0.057556  0.057556  0.057556      8.000000
 -0.071945  0.071945  0.071945      8.000000
  0.000000  0.000000  0.028778      6.000000
 -0.014389  0.014389  0.043167     24.000000
 -0.028778  0.028778  0.057556     24.000000
 -0.043167  0.043167  0.071945     24.000000
 -0.057556  0.057556  0.086333     24.000000
  0.086333 -0.086333 -0.057556     24.000000
  0.071945 -0.071945 -0.043167     24.000000
  0.057556 -0.057556 -0.028778     24.000000
  0.043167 -0.043167 -0.014389     24.000000
  0.028778 -0.028778  0.000000     12.000000
  0.000000  0.000000  0.057556      6.000000
 -0.014389  0.014389  0.071945     24.000000
 -0.028778  0.028778  0.086333     24.000000
 -0.043167  0.043167  0.100722     24.000000
  0.100722 -0.100722 -0.043167     24.000000
  0.086333 -0.086333 -0.028778     24.000000
  0.071945 -0.071945 -0.014389     24.000000
  0.057556 -0.057556  0.000000     12.000000
  0.000000  0.000000  0.086333      6.000000
 -0.014389  0.014389  0.100722     24.000000
 -0.028778  0.028778  0.115111     24.000000
  0.115111 -0.115111 -0.028778     24.000000
  0.100722 -0.100722 -0.014389     24.000000
  0.086333 -0.086333  0.000000     12.000000
  0.000000  0.000000  0.115111      6.000000
 -0.014389  0.014389  0.129500     24.000000
  0.129500 -0.129500 -0.014389     24.000000
  0.115111 -0.115111  0.000000     12.000000
  0.000000  0.000000  0.143889      6.000000
  0.143889 -0.143889 -0.000000     12.000000
  0.000000  0.028778  0.057556     24.000000
 -0.014389  0.043167  0.071945     48.000000
 -0.028778  0.057556  0.086333     48.000000
  0.115111 -0.086333 -0.057556     48.000000
  0.000000  0.028778  0.086333     24.000000
 -0.014389  0.043167  0.100722     48.000000
  0.129500 -0.100722 -0.043167     48.000000
  0.115111 -0.086333 -0.028778     48.000000
  0.100722 -0.071945 -0.014389     48.000000
  0.086333 -0.057556  0.000000     24.000000
  0.000000  0.028778  0.115111     24.000000
  0.143889 -0.115111 -0.028778     48.000000
  0.129500 -0.100722 -0.014389     48.000000
  0.115111 -0.086333  0.000000     24.000000
  0.158278 -0.129500 -0.014389     24.000000
  0.143889 -0.115111  0.000000     24.000000
  0.158278 -0.100722 -0.043167     24.000000
  0.143889 -0.086333 -0.028778     48.000000
  0.158278 -0.100722 -0.014389     24.000000
  0.143889 -0.086333  0.000000     24.000000
 
 TETIRR: Found    201 inequivalent tetrahedra from     7986


--------------------------------------------------------------------------------------------------------




 Dimension of arrays:
   k-points           NKPTS =     56   k-points in BZ     NKDIM =     56   number of bands    NBANDS=     16
   number of dos      NEDOS =   5000   number of ions     NIONS =      2
   non local maximal  LDIM  =      6   non local SUM 2l+1 LMDIM =     18
   total plane-waves  NPLWV =  21952
   max r-space proj   IRMAX =      1   max aug-charges    IRDMAX=   7579
   dimension x,y,z NGX =    28 NGY =   28 NGZ =   28
   dimension x,y,z NGXF=    40 NGYF=   40 NGZF=   40
   support grid    NGXF=    40 NGYF=   40 NGZF=   40
   ions per type =               1   1
 NGX,Y,Z   is equivalent  to a cutoff of  10.42, 10.42, 10.42 a.u.
 NGXF,Y,Z  is equivalent  to a cutoff of  14.88, 14.88, 14.88 a.u.


 I would recommend the setting:
   dimension x,y,z NGX =    25 NGY =   25 NGZ =   25
 SYSTEM =  unknown system                          
 POSCAR =  Sn Te                                   

 Startparameter for this run:
   NWRITE =      2    write-flag & timer
   PREC   = high      normal or accurate (medium, high low for compatibility)
   ISTART =      0    job   : 0-new  1-cont  2-samecut
   ICHARG =     11    charge: 1-file 2-atom 10-const
   ISPIN  =      1    spin polarized calculation?
   LNONCOLLINEAR =      F non collinear calculations
   LSORBIT =      F    spin-orbit coupling
   INIWAV =      1    electr: 0-lowe 1-rand  2-diag
   LASPH  =      F    aspherical Exc in radial PAW
   METAGGA=      F    non-selfconsistent MetaGGA calc.

 Electronic Relaxation 1
   ENCUT  =  301.4 eV  22.15 Ry    4.71 a.u.   6.32  6.32  6.32*2*pi/ulx,y,z
   ENINI  =  301.4     initial cutoff
   ENAUG  =  439.8 eV  augmentation charge cutoff
   NELM   =    300;   NELMIN=  2; NELMDL=  0     # of ELM steps 
   EDIFF  = 0.1E-05   stopping-criterion for ELM
   LREAL  =      F    real-space projection
   NLSPLINE    = F    spline interpolate recip. space projectors
   LCOMPAT=      F    compatible to vasp.4.4
   GGA_COMPAT  = T    GGA compatible to vasp.4.4-vasp.4.6
   LMAXPAW     = -100 max onsite density
   LMAXMIX     =    4 max onsite mixed and CHGCAR
   VOSKOWN=      0    Vosko Wilk Nusair interpolation
   ROPT   =    0.00000   0.00000
 Ionic relaxation
   EDIFFG = 0.1E-04   stopping-criterion for IOM
   NSW    =      0    number of steps for IOM
   NBLOCK =      1;   KBLOCK =      1    inner block; outer block 
   IBRION =     -1    ionic relax: 0-MD 1-quasi-New 2-CG
   NFREE  =      0    steps in history (QN), initial steepest desc. (CG)
   ISIF   =      2    stress and relaxation
   IWAVPR =     10    prediction:  0-non 1-charg 2-wave 3-comb
   ISYM   =      2    0-nonsym 1-usesym 2-fastsym
   LCORR  =      T    Harris-Foulkes like correction to forces

   POTIM  = 0.5000    time-step for ionic-motion
   TEIN   =    0.0    initial temperature
   TEBEG  =    0.0;   TEEND  =   0.0 temperature during run
   SMASS  =  -3.00    Nose mass-parameter (am)
   estimated Nose-frequenzy (Omega)   =  0.10E-29 period in steps =****** mass=  -0.456E-27a.u.
   SCALEE = 1.0000    scale energy and forces
   NPACO  =    256;   APACO  = 16.0  distance and # of slots for P.C.
   PSTRESS=    0.0 pullay stress

  Mass of Ions in am
   POMASS = 118.71127.60
  Ionic Valenz
   ZVAL   =  14.00  6.00
  Atomic Wigner-Seitz radii
   RWIGS  =  -1.00 -1.00
  virtual crystal weights 
   VCA    =   1.00  1.00
   NELECT =      20.0000    total number of electrons
   NUPDOWN=      -1.0000    fix difference up-down

 DOS related values:
   EMIN   =   2.91;   EMAX   = 10.91  energy-range for DOS
   EFERMI =   0.00
   ISMEAR =    -5;   SIGMA  =   0.01  broadening in eV -4-tet -1-fermi 0-gaus

 Electronic relaxation 2 (details)
   IALGO  =     38    algorithm
   LDIAG  =      T    sub-space diagonalisation (order eigenvalues)
   LSUBROT=      T    optimize rotation matrix (better conditioning)
   TURBO    =      0    0=normal 1=particle mesh
   IRESTART =      0    0=no restart 2=restart with 2 vectors
   NREBOOT  =      0    no. of reboots
   NMIN     =      0    reboot dimension
   EREF     =   0.00    reference energy to select bands
   IMIX   =      4    mixing-type and parameters
     AMIX     =   0.40;   BMIX     =  1.00
     AMIX_MAG =   1.60;   BMIX_MAG =  1.00
     AMIN     =   0.10
     WC   =   100.;   INIMIX=   1;  MIXPRE=   1;  MAXMIX= -45

 Intra band minimization:
   WEIMIN = 0.0000     energy-eigenvalue tresh-hold
   EBREAK =  0.16E-07  absolut break condition
   DEPER  =   0.30     relativ break condition  

   TIME   =   0.40     timestep for ELM

  volume/ion in A,a.u.               =      31.52       212.74
  Fermi-wavevector in a.u.,A,eV,Ry     =   1.116499  2.109878 16.960630  1.246571
  Thomas-Fermi vector in A             =   2.253114
 
 Write flags
   LWAVE  =      F    write WAVECAR
   LCHARG =      T    write CHGCAR
   LVTOT  =      F    write LOCPOT, total local potential
   LVHAR  =      F    write LOCPOT, Hartree potential only
   LELF   =      F    write electronic localiz. function (ELF)
   LORBIT =     11    0 simple, 1 ext, 2 COOP (PROOUT)


 Dipole corrections
   LMONO  =      F    monopole corrections only (constant potential shift)
   LDIPOL =      F    correct potential (dipole corrections)
   IDIPOL =      0    1-x, 2-y, 3-z, 4-all directions 
   EPSILON=  1.0000000 bulk dielectric constant

 Exchange correlation treatment:
   GGA     =    --    GGA type
   LEXCH   =     8    internal setting for exchange type
   VOSKOWN=      0    Vosko Wilk Nusair interpolation
   LHFCALC =     F    Hartree Fock is set to
   LHFONE  =     F    Hartree Fock one center treatment
   AEXX    =    0.0000 exact exchange contribution

 Linear response parameters
   LEPSILON=     F    determine dielectric tensor
   LRPA    =     F    only Hartree local field effects (RPA)
   LNABLA  =     F    use nabla operator in PAW spheres
   LVEL    =     F    velocity operator in full k-point grid
   LINTERFAST=   F  fast interpolation
   KINTER  =     0    interpolate to denser k-point grid
   CSHIFT  =0.1000    complex shift for real part using Kramers Kronig
   OMEGAMAX=  -1.0    maximum frequency
   DEG_THRESHOLD= 0.2000000E-02 threshold for treating states as degnerate
   RTIME   =    0.100 relaxation time in fs

 Orbital magnetization related:
   ORBITALMAG=     F  switch on orbital magnetization
   LCHIMAG   =     F  perturbation theory with respect to B field
   DQ        =  0.001000  dq finite difference perturbation B field



--------------------------------------------------------------------------------------------------------


 Static calculation
 charge density and potential remain constant during run
 non-spin polarized calculation
 Variant of blocked Davidson
 Davidson routine will perform the subspace rotation
 perform sub-space diagonalisation
    after iterative eigenvector-optimisation
 no mixing
 using additional bands            6
 reciprocal scheme for non local part
 use partial core corrections
 calculate Harris-corrections to forces 
   (improved forces if not selfconsistent)
 use gradient corrections 
 WARNING: stress and forces are not correct
  (second derivative of E(xc) not defined)
 use of overlap-Matrix (Vanderbilt PP)
 Fermi weights with tetrahedron method with Bloechl corrections


--------------------------------------------------------------------------------------------------------


  energy-cutoff  :      301.35
  volume of cell :       63.05
      direct lattice vectors                 reciprocal lattice vectors
     0.000000000  3.159000071  3.159000071    -0.158277933  0.158277933  0.158277933
     3.159000071  0.000000000  3.159000071     0.158277933 -0.158277933  0.158277933
     3.159000071  3.159000071  0.000000000     0.158277933  0.158277933 -0.158277933

  length of vectors
     4.467500743  4.467500743  4.467500743     0.274145421  0.274145421  0.274145421


 
 k-points in units of 2pi/SCALE and weight: Automatic kpoint scheme                 
   0.00000000  0.00000000  0.00000000       0.001
  -0.01438890  0.01438890  0.01438890       0.006
  -0.02877781  0.02877781  0.02877781       0.006
  -0.04316671  0.04316671  0.04316671       0.006
  -0.05755561  0.05755561  0.05755561       0.006
  -0.07194451  0.07194451  0.07194451       0.006
   0.00000000  0.00000000  0.02877781       0.005
  -0.01438890  0.01438890  0.04316671       0.018
  -0.02877781  0.02877781  0.05755561       0.018
  -0.04316671  0.04316671  0.07194451       0.018
  -0.05755561  0.05755561  0.08633342       0.018
   0.08633342 -0.08633342 -0.05755561       0.018
   0.07194451 -0.07194451 -0.04316671       0.018
   0.05755561 -0.05755561 -0.02877781       0.018
   0.04316671 -0.04316671 -0.01438890       0.018
   0.02877781 -0.02877781  0.00000000       0.009
   0.00000000  0.00000000  0.05755561       0.005
  -0.01438890  0.01438890  0.07194451       0.018
  -0.02877781  0.02877781  0.08633342       0.018
  -0.04316671  0.04316671  0.10072232       0.018
   0.10072232 -0.10072232 -0.04316671       0.018
   0.08633342 -0.08633342 -0.02877781       0.018
   0.07194451 -0.07194451 -0.01438890       0.018
   0.05755561 -0.05755561  0.00000000       0.009
   0.00000000  0.00000000  0.08633342       0.005
  -0.01438890  0.01438890  0.10072232       0.018
  -0.02877781  0.02877781  0.11511122       0.018
   0.11511122 -0.11511122 -0.02877781       0.018
   0.10072232 -0.10072232 -0.01438890       0.018
   0.08633342 -0.08633342  0.00000000       0.009
   0.00000000  0.00000000  0.11511122       0.005
  -0.01438890  0.01438890  0.12950013       0.018
   0.12950013 -0.12950013 -0.01438890       0.018
   0.11511122 -0.11511122  0.00000000       0.009
   0.00000000  0.00000000  0.14388903       0.005
   0.14388903 -0.14388903 -0.00000000       0.009
   0.00000000  0.02877781  0.05755561       0.018
  -0.01438890  0.04316671  0.07194451       0.036
  -0.02877781  0.05755561  0.08633342       0.036
   0.11511122 -0.08633342 -0.05755561       0.036
   0.00000000  0.02877781  0.08633342       0.018
  -0.01438890  0.04316671  0.10072232       0.036
   0.12950013 -0.10072232 -0.04316671       0.036
   0.11511122 -0.08633342 -0.02877781       0.036
   0.10072232 -0.07194451 -0.01438890       0.036
   0.08633342 -0.05755561  0.00000000       0.018
   0.00000000  0.02877781  0.11511122       0.018
   0.14388903 -0.11511122 -0.02877781       0.036
   0.12950013 -0.10072232 -0.01438890       0.036
   0.11511122 -0.08633342  0.00000000       0.018
   0.15827793 -0.12950013 -0.01438890       0.018
   0.14388903 -0.11511122  0.00000000       0.018
   0.15827793 -0.10072232 -0.04316671       0.018
   0.14388903 -0.08633342 -0.02877781       0.036
   0.15827793 -0.10072232 -0.01438890       0.018
   0.14388903 -0.08633342  0.00000000       0.018
 
 k-points in reciprocal lattice and weights: Automatic kpoint scheme                 
   0.00000000  0.00000000  0.00000000       0.001
   0.09090909  0.00000000  0.00000000       0.006
   0.18181818  0.00000000  0.00000000       0.006
   0.27272727  0.00000000  0.00000000       0.006
   0.36363636  0.00000000  0.00000000       0.006
   0.45454545  0.00000000  0.00000000       0.006
   0.09090909  0.09090909  0.00000000       0.005
   0.18181818  0.09090909  0.00000000       0.018
   0.27272727  0.09090909  0.00000000       0.018
   0.36363636  0.09090909  0.00000000       0.018
   0.45454545  0.09090909  0.00000000       0.018
  -0.45454545  0.09090909  0.00000000       0.018
  -0.36363636  0.09090909  0.00000000       0.018
  -0.27272727  0.09090909  0.00000000       0.018
  -0.18181818  0.09090909  0.00000000       0.018
  -0.09090909  0.09090909  0.00000000       0.009
   0.18181818  0.18181818  0.00000000       0.005
   0.27272727  0.18181818  0.00000000       0.018
   0.36363636  0.18181818  0.00000000       0.018
   0.45454545  0.18181818  0.00000000       0.018
  -0.45454545  0.18181818  0.00000000       0.018
  -0.36363636  0.18181818  0.00000000       0.018
  -0.27272727  0.18181818  0.00000000       0.018
  -0.18181818  0.18181818  0.00000000       0.009
   0.27272727  0.27272727  0.00000000       0.005
   0.36363636  0.27272727  0.00000000       0.018
   0.45454545  0.27272727  0.00000000       0.018
  -0.45454545  0.27272727  0.00000000       0.018
  -0.36363636  0.27272727  0.00000000       0.018
  -0.27272727  0.27272727  0.00000000       0.009
   0.36363636  0.36363636  0.00000000       0.005
   0.45454545  0.36363636  0.00000000       0.018
  -0.45454545  0.36363636  0.00000000       0.018
  -0.36363636  0.36363636  0.00000000       0.009
   0.45454545  0.45454545  0.00000000       0.005
  -0.45454545  0.45454545  0.00000000       0.009
   0.27272727  0.18181818  0.09090909       0.018
   0.36363636  0.18181818  0.09090909       0.036
   0.45454545  0.18181818  0.09090909       0.036
  -0.45454545  0.18181818  0.09090909       0.036
   0.36363636  0.27272727  0.09090909       0.018
   0.45454545  0.27272727  0.09090909       0.036
  -0.45454545  0.27272727  0.09090909       0.036
  -0.36363636  0.27272727  0.09090909       0.036
  -0.27272727  0.27272727  0.09090909       0.036
  -0.18181818  0.27272727  0.09090909       0.018
   0.45454545  0.36363636  0.09090909       0.018
  -0.45454545  0.36363636  0.09090909       0.036
  -0.36363636  0.36363636  0.09090909       0.036
  -0.27272727  0.36363636  0.09090909       0.018
  -0.45454545  0.45454545  0.09090909       0.018
  -0.36363636  0.45454545  0.09090909       0.018
  -0.45454545  0.36363636  0.18181818       0.018
  -0.36363636  0.36363636  0.18181818       0.036
  -0.36363636  0.45454545  0.18181818       0.018
  -0.27272727  0.45454545  0.18181818       0.018
 
 position of ions in fractional coordinates (direct lattice) 
   0.00000000  0.00000000  0.00000000
   0.50000000  0.50000000  0.50000000
 
 position of ions in cartesian coordinates  (Angst):
   0.00000000  0.00000000  0.00000000
   3.15900007  3.15900007  3.15900007
 


--------------------------------------------------------------------------------------------------------


 k-point  1 :   0.0000 0.0000 0.0000  plane waves:     725
 k-point  2 :   0.0909 0.0000 0.0000  plane waves:     737
 k-point  3 :   0.1818 0.0000 0.0000  plane waves:     760
 k-point  4 :   0.2727 0.0000 0.0000  plane waves:     757
 k-point  5 :   0.3636 0.0000 0.0000  plane waves:     757
 k-point  6 :   0.4545 0.0000 0.0000  plane waves:     763
 k-point  7 :   0.0909 0.0909 0.0000  plane waves:     737
 k-point  8 :   0.1818 0.0909 0.0000  plane waves:     751
 k-point  9 :   0.2727 0.0909 0.0000  plane waves:     751
 k-point 10 :   0.3636 0.0909 0.0000  plane waves:     760
 k-point 11 :   0.4545 0.0909 0.0000  plane waves:     750
 k-point 12 :  -0.4545 0.0909 0.0000  plane waves:     752
 k-point 13 :  -0.3636 0.0909 0.0000  plane waves:     750
 k-point 14 :  -0.2727 0.0909 0.0000  plane waves:     752
 k-point 15 :  -0.1818 0.0909 0.0000  plane waves:     754
 k-point 16 :  -0.0909 0.0909 0.0000  plane waves:     751
 k-point 17 :   0.1818 0.1818 0.0000  plane waves:     745
 k-point 18 :   0.2727 0.1818 0.0000  plane waves:     746
 k-point 19 :   0.3636 0.1818 0.0000  plane waves:     749
 k-point 20 :   0.4545 0.1818 0.0000  plane waves:     754
 k-point 21 :  -0.4545 0.1818 0.0000  plane waves:     751
 k-point 22 :  -0.3636 0.1818 0.0000  plane waves:     757
 k-point 23 :  -0.2727 0.1818 0.0000  plane waves:     749
 k-point 24 :  -0.1818 0.1818 0.0000  plane waves:     758
 k-point 25 :   0.2727 0.2727 0.0000  plane waves:     737
 k-point 26 :   0.3636 0.2727 0.0000  plane waves:     749
 k-point 27 :   0.4545 0.2727 0.0000  plane waves:     757
 k-point 28 :  -0.4545 0.2727 0.0000  plane waves:     744
 k-point 29 :  -0.3636 0.2727 0.0000  plane waves:     742
 k-point 30 :  -0.2727 0.2727 0.0000  plane waves:     754
 k-point 31 :   0.3636 0.3636 0.0000  plane waves:     753
 k-point 32 :   0.4545 0.3636 0.0000  plane waves:     754
 k-point 33 :  -0.4545 0.3636 0.0000  plane waves:     750
 k-point 34 :  -0.3636 0.3636 0.0000  plane waves:     740
 k-point 35 :   0.4545 0.4545 0.0000  plane waves:     745
 k-point 36 :  -0.4545 0.4545 0.0000  plane waves:     744
 k-point 37 :   0.2727 0.1818 0.0909  plane waves:     758
 k-point 38 :   0.3636 0.1818 0.0909  plane waves:     753
 k-point 39 :   0.4545 0.1818 0.0909  plane waves:     756
 k-point 40 :  -0.4545 0.1818 0.0909  plane waves:     750
 k-point 41 :   0.3636 0.2727 0.0909  plane waves:     746
 k-point 42 :   0.4545 0.2727 0.0909  plane waves:     750
 k-point 43 :  -0.4545 0.2727 0.0909  plane waves:     742
 k-point 44 :  -0.3636 0.2727 0.0909  plane waves:     744
 k-point 45 :  -0.2727 0.2727 0.0909  plane waves:     754
 k-point 46 :  -0.1818 0.2727 0.0909  plane waves:     754
 k-point 47 :   0.4545 0.3636 0.0909  plane waves:     751
 k-point 48 :  -0.4545 0.3636 0.0909  plane waves:     743
 k-point 49 :  -0.3636 0.3636 0.0909  plane waves:     746
 k-point 50 :  -0.2727 0.3636 0.0909  plane waves:     744
 k-point 51 :  -0.4545 0.4545 0.0909  plane waves:     749
 k-point 52 :  -0.3636 0.4545 0.0909  plane waves:     745
 k-point 53 :  -0.4545 0.3636 0.1818  plane waves:     744
 k-point 54 :  -0.3636 0.3636 0.1818  plane waves:     742
 k-point 55 :  -0.3636 0.4545 0.1818  plane waves:     750
 k-point 56 :  -0.2727 0.4545 0.1818  plane waves:     741

 maximum and minimum number of plane-waves per node :       135      116

 maximum number of plane-waves:       763
 maximum index in each direction: 
   IXMAX=    6   IYMAX=    6   IZMAX=    6
   IXMIN=   -6   IYMIN=   -6   IZMIN=   -6

 NGX is ok and might be reduce to  26
 NGY is ok and might be reduce to  26
 NGZ is ok and might be reduce to  26

 parallel 3D FFT for wavefunctions:
    minimum data exchange during FFTs selected (reduces bandwidth)
 parallel 3D FFT for charge:
    minimum data exchange during FFTs selected (reduces bandwidth)


 total amount of memory used by VASP on root node    33405. kBytes
========================================================================

   base      :      30000. kBytes
   nonl-proj :       2068. kBytes
   fftplans  :        360. kBytes
   grid      :        432. kBytes
   one-center:         15. kBytes
   wavefun   :        530. kBytes
 
 initial charge density was supplied:
 number of electron      19.9999914 magnetization 
 keeping initial charge density in first step


--------------------------------------------------------------------------------------------------------


 Maximum index for augmentation-charges          378 (set IRDMAX)


--------------------------------------------------------------------------------------------------------


 First call to EWALD:  gamma=   0.445
 Maximum number of real-space cells 3x 3x 3
 Maximum number of reciprocal cells 3x 3x 3

 FEWALD executed in parallel
    FEWALD:  cpu time    0.00: real time    0.00


----------------------------------------- Iteration    1(   1)  ---------------------------------------


    POTLOK:  cpu time    0.01: real time    0.01
    SETDIJ:  cpu time    0.01: real time    0.01
     EDDAV:  cpu time    0.31: real time    0.32
 BZINTS: Fermi energy: 12.990352; 20.000000 electrons
         Band energy: -26.163083;  BLOECHL correction: -0.125755
       DOS:  cpu time    0.32: real time    0.32
    --------------------------------------------
      LOOP:  cpu time    0.65: real time    0.68

 eigenvalue-minimisations  :  1840
 total energy-change (2. order) : 0.1019152E+03  (-0.7208324E+03)
 number of electron      19.9999914 magnetization 
 augmentation part       19.9999914 magnetization 

 Free energy of the ion-electron system (eV)
  ---------------------------------------------------
  alpha Z        PSCENC =        26.74713621
  Ewald energy   TEWEN  =     -1420.79165657
  -1/2 Hartree   DENC   =      -624.06131123
  -exchange  EXHF       =         0.00000000
  -V(xc)+E(xc)   XCENC  =        28.85531748
  PAW double counting   =      2201.57570278    -2200.59215110
  entropy T*S    EENTRO =         0.00000000
  eigenvalues    EBANDS =       -26.16308307
  atomic energy  EATOM  =      2116.34525819
  ---------------------------------------------------
  free energy    TOTEN  =       101.91521269 eV

  energy without entropy =      101.91521269  energy(sigma->0) =      101.91521269


--------------------------------------------------------------------------------------------------------




----------------------------------------- Iteration    1(   2)  ---------------------------------------


     EDDAV:  cpu time    0.27: real time    0.27
 BZINTS: Fermi energy:  7.078534; 20.000000 electrons
         Band energy:-127.635777;  BLOECHL correction:  0.000000
       DOS:  cpu time    0.05: real time    0.05
    --------------------------------------------
      LOOP:  cpu time    0.32: real time    0.32

 eigenvalue-minimisations  :  2008
 total energy-change (2. order) :-0.1014727E+03  (-0.9994940E+02)
 number of electron      19.9999914 magnetization 
 augmentation part       19.9999914 magnetization 

 Free energy of the ion-electron system (eV)
  ---------------------------------------------------
  alpha Z        PSCENC =        26.74713621
  Ewald energy   TEWEN  =     -1420.79165657
  -1/2 Hartree   DENC   =      -624.06131123
  -exchange  EXHF       =         0.00000000
  -V(xc)+E(xc)   XCENC  =        28.85531748
  PAW double counting   =      2201.57570278    -2200.59215110
  entropy T*S    EENTRO =         0.00000000
  eigenvalues    EBANDS =      -127.63577692
  atomic energy  EATOM  =      2116.34525819
  ---------------------------------------------------
  free energy    TOTEN  =         0.44251885 eV

  energy without entropy =        0.44251885  energy(sigma->0) =        0.44251885


--------------------------------------------------------------------------------------------------------




----------------------------------------- Iteration    1(   3)  ---------------------------------------


     EDDAV:  cpu time    0.29: real time    0.29
 BZINTS: Fermi energy:  6.715262; 20.000000 electrons
         Band energy:-135.434526;  BLOECHL correction:  0.000000
       DOS:  cpu time    0.06: real time    0.06
    --------------------------------------------
      LOOP:  cpu time    0.35: real time    0.35

 eigenvalue-minimisations  :  2200
 total energy-change (2. order) :-0.7798749E+01  (-0.7787903E+01)
 number of electron      19.9999914 magnetization 
 augmentation part       19.9999914 magnetization 

 Free energy of the ion-electron system (eV)
  ---------------------------------------------------
  alpha Z        PSCENC =        26.74713621
  Ewald energy   TEWEN  =     -1420.79165657
  -1/2 Hartree   DENC   =      -624.06131123
  -exchange  EXHF       =         0.00000000
  -V(xc)+E(xc)   XCENC  =        28.85531748
  PAW double counting   =      2201.57570278    -2200.59215110
  entropy T*S    EENTRO =         0.00000000
  eigenvalues    EBANDS =      -135.43452611
  atomic energy  EATOM  =      2116.34525819
  ---------------------------------------------------
  free energy    TOTEN  =        -7.35623034 eV

  energy without entropy =       -7.35623034  energy(sigma->0) =       -7.35623034


--------------------------------------------------------------------------------------------------------




----------------------------------------- Iteration    1(   4)  ---------------------------------------


     EDDAV:  cpu time    0.30: real time    0.30
 BZINTS: Fermi energy:  6.715262; 20.000000 electrons
         Band energy:-135.618997;  BLOECHL correction:  0.000000
       DOS:  cpu time    0.06: real time    0.06
    --------------------------------------------
      LOOP:  cpu time    0.36: real time    0.36

 eigenvalue-minimisations  :  2240
 total energy-change (2. order) :-0.1844709E+00  (-0.1844509E+00)
 number of electron      19.9999914 magnetization 
 augmentation part       19.9999914 magnetization 

 Free energy of the ion-electron system (eV)
  ---------------------------------------------------
  alpha Z        PSCENC =        26.74713621
  Ewald energy   TEWEN  =     -1420.79165657
  -1/2 Hartree   DENC   =      -624.06131123
  -exchange  EXHF       =         0.00000000
  -V(xc)+E(xc)   XCENC  =        28.85531748
  PAW double counting   =      2201.57570278    -2200.59215110
  entropy T*S    EENTRO =         0.00000000
  eigenvalues    EBANDS =      -135.61899705
  atomic energy  EATOM  =      2116.34525819
  ---------------------------------------------------
  free energy    TOTEN  =        -7.54070129 eV

  energy without entropy =       -7.54070129  energy(sigma->0) =       -7.54070129


--------------------------------------------------------------------------------------------------------




----------------------------------------- Iteration    1(   5)  ---------------------------------------


     EDDAV:  cpu time    0.32: real time    0.33
 BZINTS: Fermi energy:  6.715262; 20.000000 electrons
         Band energy:-135.626642;  BLOECHL correction:  0.000000
       DOS:  cpu time    0.06: real time    0.06
    --------------------------------------------
      LOOP:  cpu time    0.38: real time    0.38

 eigenvalue-minimisations  :  2496
 total energy-change (2. order) :-0.7644883E-02  (-0.7644840E-02)
 number of electron      19.9999914 magnetization 
 augmentation part       19.9999914 magnetization 

 Free energy of the ion-electron system (eV)
  ---------------------------------------------------
  alpha Z        PSCENC =        26.74713621
  Ewald energy   TEWEN  =     -1420.79165657
  -1/2 Hartree   DENC   =      -624.06131123
  -exchange  EXHF       =         0.00000000
  -V(xc)+E(xc)   XCENC  =        28.85531748
  PAW double counting   =      2201.57570278    -2200.59215110
  entropy T*S    EENTRO =         0.00000000
  eigenvalues    EBANDS =      -135.62664193
  atomic energy  EATOM  =      2116.34525819
  ---------------------------------------------------
  free energy    TOTEN  =        -7.54834617 eV

  energy without entropy =       -7.54834617  energy(sigma->0) =       -7.54834617


--------------------------------------------------------------------------------------------------------




----------------------------------------- Iteration    1(   6)  ---------------------------------------


     EDDAV:  cpu time    0.33: real time    0.33
 BZINTS: Fermi energy:  6.715262; 20.000000 electrons
         Band energy:-135.626934;  BLOECHL correction:  0.000000
       DOS:  cpu time    0.06: real time    0.06
    --------------------------------------------
      LOOP:  cpu time    0.39: real time    0.39

 eigenvalue-minimisations  :  2536
 total energy-change (2. order) :-0.2925529E-03  (-0.2925528E-03)
 number of electron      19.9999914 magnetization 
 augmentation part       19.9999914 magnetization 

 Free energy of the ion-electron system (eV)
  ---------------------------------------------------
  alpha Z        PSCENC =        26.74713621
  Ewald energy   TEWEN  =     -1420.79165657
  -1/2 Hartree   DENC   =      -624.06131123
  -exchange  EXHF       =         0.00000000
  -V(xc)+E(xc)   XCENC  =        28.85531748
  PAW double counting   =      2201.57570278    -2200.59215110
  entropy T*S    EENTRO =         0.00000000
  eigenvalues    EBANDS =      -135.62693449
  atomic energy  EATOM  =      2116.34525819
  ---------------------------------------------------
  free energy    TOTEN  =        -7.54863872 eV

  energy without entropy =       -7.54863872  energy(sigma->0) =       -7.54863872


--------------------------------------------------------------------------------------------------------




----------------------------------------- Iteration    1(   7)  ---------------------------------------


     EDDAV:  cpu time    0.32: real time    0.39
 BZINTS: Fermi energy:  6.715262; 20.000000 electrons
         Band energy:-135.626937;  BLOECHL correction:  0.000000
       DOS:  cpu time    0.05: real time    0.05
    --------------------------------------------
      LOOP:  cpu time    0.38: real time    0.45

 eigenvalue-minimisations  :  2472
 total energy-change (2. order) :-0.2375566E-05  (-0.2375559E-05)
 number of electron      19.9999914 magnetization 
 augmentation part       19.9999914 magnetization 

 Free energy of the ion-electron system (eV)
  ---------------------------------------------------
  alpha Z        PSCENC =        26.74713621
  Ewald energy   TEWEN  =     -1420.79165657
  -1/2 Hartree   DENC   =      -624.06131123
  -exchange  EXHF       =         0.00000000
  -V(xc)+E(xc)   XCENC  =        28.85531748
  PAW double counting   =      2201.57570278    -2200.59215110
  entropy T*S    EENTRO =         0.00000000
  eigenvalues    EBANDS =      -135.62693686
  atomic energy  EATOM  =      2116.34525819
  ---------------------------------------------------
  free energy    TOTEN  =        -7.54864110 eV

  energy without entropy =       -7.54864110  energy(sigma->0) =       -7.54864110


--------------------------------------------------------------------------------------------------------




----------------------------------------- Iteration    1(   8)  ---------------------------------------


     EDDAV:  cpu time    0.25: real time    0.25
 BZINTS: Fermi energy:  6.715262; 20.000000 electrons
         Band energy:-135.626937;  BLOECHL correction:  0.000000
       DOS:  cpu time    0.05: real time    0.05
    --------------------------------------------
      LOOP:  cpu time    0.30: real time    0.31

 eigenvalue-minimisations  :  1752
 total energy-change (2. order) :-0.3008745E-07  (-0.3010480E-07)
 number of electron      19.9999914 magnetization 
 augmentation part       19.9999914 magnetization 

 Free energy of the ion-electron system (eV)
  ---------------------------------------------------
  alpha Z        PSCENC =        26.74713621
  Ewald energy   TEWEN  =     -1420.79165657
  -1/2 Hartree   DENC   =      -624.06131123
  -exchange  EXHF       =         0.00000000
  -V(xc)+E(xc)   XCENC  =        28.85531748
  PAW double counting   =      2201.57570278    -2200.59215110
  entropy T*S    EENTRO =         0.00000000
  eigenvalues    EBANDS =      -135.62693689
  atomic energy  EATOM  =      2116.34525819
  ---------------------------------------------------
  free energy    TOTEN  =        -7.54864113 eV

  energy without entropy =       -7.54864113  energy(sigma->0) =       -7.54864113


--------------------------------------------------------------------------------------------------------




 average (electrostatic) potential at core
  the test charge radii are     1.0894  1.1897
  (the norm of the test charge is              1.0000)
       1-100.6543       2 -87.8785
 
 
 
 E-fermi :   6.7153     XC(G=0):  -9.4610     alpha+bet :-11.4178


 k-point   1 :       0.0000    0.0000    0.0000
  band No.  band energies     occupation 
      1     -15.0154      2.00000
      2     -15.0154      2.00000
      3     -15.0113      2.00000
      4     -15.0113      2.00000
      5     -15.0113      2.00000
      6      -5.8870      2.00000
      7       2.1499      2.00000
      8       4.7364      2.00000
      9       4.7364      2.00000
     10       4.7364      2.00000
     11      10.1926      0.00000
     12      10.1926      0.00000
     13      10.1926      0.00000
     14      11.6259      0.00000
     15      11.6259      0.00000
     16      11.6259      0.00000

 k-point   2 :       0.0909    0.0000    0.0000
  band No.  band energies     occupation 
      1     -15.0159      2.00000
      2     -15.0159      2.00000
      3     -15.0113      2.00000
      4     -15.0109      2.00000
      5     -15.0109      2.00000
      6      -5.8178      2.00000
      7       1.7503      2.00000
      8       4.7483      2.00000
      9       4.7483      2.00000
     10       5.0256      2.00000
     11       9.7970      0.00000
     12       9.7970      0.00000
     13       9.8161      0.00000
     14      11.5715      0.00000
     15      11.7987      0.00000
     16      11.7988      0.00000

 k-point   3 :       0.1818    0.0000    0.0000
  band No.  band energies     occupation 
      1     -15.0173      2.00000
      2     -15.0172      2.00000
      3     -15.0111      2.00000
      4     -15.0098      2.00000
      5     -15.0097      2.00000
      6      -5.6163      2.00000
      7       0.9025      2.00000
      8       4.7886      2.00000
      9       4.7886      2.00000
     10       5.5508      2.00000
     11       9.0199      0.00000
     12       9.0200      0.00000
     13       9.0676      0.00000
     14      11.6655      0.00000
     15      12.2812      0.00000
     16      12.2812      0.00000

 k-point   4 :       0.2727    0.0000    0.0000
  band No.  band energies     occupation 
      1     -15.0188      2.00000
      2     -15.0188      2.00000
      3     -15.0106      2.00000
      4     -15.0077      2.00000
      5     -15.0076      2.00000
      6      -5.3056      2.00000
      7      -0.0269      2.00000
      8       4.8653      2.00000
      9       4.8653      2.00000
     10       6.0062      2.00000
     11       8.2500      0.00000
     12       8.2500      0.00000
     13       8.3116      0.00000
     14      12.1618      0.00000
     15      13.0440      0.00000
     16      13.0441      0.00000

 k-point   5 :       0.3636    0.0000    0.0000
  band No.  band energies     occupation 
      1     -15.0202      2.00000
      2     -15.0202      2.00000
      3     -15.0102      2.00000
      4     -15.0058      2.00000
      5     -15.0058      2.00000
      6      -4.9443      2.00000
      7      -0.8463      2.00000
      8       4.9704      2.00000
      9       4.9704      2.00000
     10       6.3674      2.00000
     11       7.6375      0.00000
     12       7.6375      0.00000
     13       7.6594      0.00000
     14      13.0745      0.00000
     15      14.0568      0.00000
     16      14.0569      0.00000

 k-point   6 :       0.4545    0.0000    0.0000
  band No.  band energies     occupation 
      1     -15.0213      2.00000
      2     -15.0212      2.00000
      3     -15.0098      2.00000
      4     -15.0047      2.00000
      5     -15.0047      2.00000
      6      -4.6670      2.00000
      7      -1.3642      2.00000
      8       5.0579      2.00000
      9       5.0579      2.00000
     10       6.7142      2.00000
     11       7.1352      0.00000
     12       7.2851      0.00000
     13       7.2851      0.00000
     14      14.2479      0.00000
     15      15.2585      0.00000
     16      15.2585      0.00000

 k-point   7 :       0.0909    0.0909    0.0000
  band No.  band energies     occupation 
      1     -15.0169      2.00000
      2     -15.0152      2.00000
      3     -15.0116      2.00000
      4     -15.0106      2.00000
      5     -15.0106      2.00000
      6      -5.7948      2.00000
      7       1.6844      2.00000
      8       4.5698      2.00000
      9       4.5698      2.00000
     10       5.4193      2.00000
     11       8.9357      0.00000
     12      10.2175      0.00000
     13      10.2176      0.00000
     14      11.1358      0.00000
     15      12.0998      0.00000
     16      12.0998      0.00000

 k-point   8 :       0.1818    0.0909    0.0000
  band No.  band energies     occupation 
      1     -15.0184      2.00000
      2     -15.0154      2.00000
      3     -15.0118      2.00000
      4     -15.0096      2.00000
      5     -15.0095      2.00000
      6      -5.6377      2.00000
      7       1.0913      2.00000
      8       4.4468      2.00000
      9       4.5337      2.00000
     10       5.9332      2.00000
     11       8.0782      0.00000
     12       9.9034      0.00000
     13       9.9075      0.00000
     14      11.0087      0.00000
     15      12.5387      0.00000
     16      12.6465      0.00000

 k-point   9 :       0.2727    0.0909    0.0000
  band No.  band energies     occupation 
      1     -15.0200      2.00000
      2     -15.0167      2.00000
      3     -15.0112      2.00000
      4     -15.0081      2.00000
      5     -15.0075      2.00000
      6      -5.3633      2.00000
      7       0.2605      2.00000
      8       4.4097      2.00000
      9       4.6172      2.00000
     10       6.1439      2.00000
     11       7.5640      0.00000
     12       9.2205      0.00000
     13       9.3008      0.00000
     14      11.2890      0.00000
     15      13.1442      0.00000
     16      13.4228      0.00000

 k-point  10 :       0.3636    0.0909    0.0000
  band No.  band energies     occupation 
      1     -15.0214      2.00000
      2     -15.0185      2.00000
      3     -15.0105      2.00000
      4     -15.0067      2.00000
      5     -15.0056      2.00000
      6      -5.0155      2.00000
      7      -0.5620      2.00000
      8       4.4764      2.00000
      9       4.6713      2.00000
     10       5.9618      2.00000
     11       7.5401      0.00000
     12       8.5166      0.00000
     13       8.7307      0.00000
     14      11.9759      0.00000
     15      14.0359      0.00000
     16      14.4288      0.00000

 k-point  11 :       0.4545    0.0909    0.0000
  band No.  band energies     occupation 
      1     -15.0220      2.00000
      2     -15.0198      2.00000
      3     -15.0096      2.00000
      4     -15.0054      2.00000
      5     -15.0043      2.00000
      6      -4.6978      2.00000
      7      -1.1775      2.00000
      8       4.5689      2.00000
      9       4.6460      2.00000
     10       5.8742      2.00000
     11       7.5965      0.00000
     12       7.9220      0.00000
     13       8.4110      0.00000
     14      13.0198      0.00000
     15      15.1522      0.00000
     16      15.5834      0.00000

 k-point  12 :      -0.4545    0.0909    0.0000
  band No.  band energies     occupation 
      1     -15.0217      2.00000
      2     -15.0206      2.00000
      3     -15.0093      2.00000
      4     -15.0048      2.00000
      5     -15.0044      2.00000
      6      -4.5932      2.00000
      7      -1.3617      2.00000
      8       4.3419      2.00000
      9       4.8863      2.00000
     10       6.0830      2.00000
     11       7.4052      0.00000
     12       7.5079      0.00000
     13       8.5575      0.00000
     14      14.0421      0.00000
     15      14.7911      0.00000
     16      15.1143      0.00000

 k-point  13 :      -0.3636    0.0909    0.0000
  band No.  band energies     occupation 
      1     -15.0206      2.00000
      2     -15.0205      2.00000
      3     -15.0097      2.00000
      4     -15.0055      2.00000
      5     -15.0051      2.00000
      6      -4.7901      2.00000
      7      -1.0183      2.00000
      8       4.1501      2.00000
      9       5.1090      2.00000
     10       6.4387      2.00000
     11       7.1852      0.00000
     12       7.3643      0.00000
     13       8.9746      0.00000
     14      13.0881      0.00000
     15      13.9021      0.00000
     16      15.6519      0.00000

 k-point  14 :      -0.2727    0.0909    0.0000
  band No.  band energies     occupation 
      1     -15.0199      2.00000
      2     -15.0188      2.00000
      3     -15.0103      2.00000
      4     -15.0074      2.00000
      5     -15.0062      2.00000
      6      -5.1351      2.00000
      7      -0.3220      2.00000
      8       4.0766      2.00000
      9       5.1918      2.00000
     10       6.4729      2.00000
     11       7.4205      0.00000
     12       7.5930      0.00000
     13       9.4924      0.00000
     14      12.1574      0.00000
     15      12.9189      0.00000
     16      14.4485      0.00000

 k-point  15 :      -0.1818    0.0909    0.0000
  band No.  band energies     occupation 
      1     -15.0187      2.00000
      2     -15.0172      2.00000
      3     -15.0110      2.00000
      4     -15.0092      2.00000
      5     -15.0080      2.00000
      6      -5.4661      2.00000
      7       0.5073      2.00000
      8       4.1526      2.00000
      9       5.1125      2.00000
     10       6.0811      2.00000
     11       8.1322      0.00000
     12       8.1768      0.00000
     13       9.9753      0.00000
     14      11.6453      0.00000
     15      12.2206      0.00000
     16      13.3938      0.00000

 k-point  16 :      -0.0909    0.0909    0.0000
  band No.  band energies     occupation 
      1     -15.0172      2.00000
      2     -15.0160      2.00000
      3     -15.0114      2.00000
      4     -15.0105      2.00000
      5     -15.0099      2.00000
      6      -5.7045      2.00000
      7       1.2756      2.00000
      8       4.3950      2.00000
      9       4.9440      2.00000
     10       5.5227      2.00000
     11       8.9790      0.00000
     12       8.9935      0.00000
     13      10.1984      0.00000
     14      11.4838      0.00000
     15      11.8400      0.00000
     16      12.5013      0.00000

 k-point  17 :       0.1818    0.1818    0.0000
  band No.  band energies     occupation 
      1     -15.0202      2.00000
      2     -15.0142      2.00000
      3     -15.0125      2.00000
      4     -15.0085      2.00000
      5     -15.0085      2.00000
      6      -5.5283      2.00000
      7       0.9493      2.00000
      8       4.1714      2.00000
      9       4.1714      2.00000
     10       5.9961      2.00000
     11       7.8226      0.00000
     12      10.3749      0.00000
     13      10.4192      0.00000
     14      10.4193      0.00000
     15      13.2768      0.00000
     16      13.2768      0.00000

 k-point  18 :       0.2727    0.1818    0.0000
  band No.  band energies     occupation 
      1     -15.0222      2.00000
      2     -15.0144      2.00000
      3     -15.0127      2.00000
      4     -15.0070      2.00000
      5     -15.0068      2.00000
      6      -5.3006      2.00000
      7       0.4500      2.00000
      8       4.0073      2.00000
      9       4.0661      2.00000
     10       5.3649      2.00000
     11       8.3168      0.00000
     12      10.0551      0.00000
     13      10.2165      0.00000
     14      10.5105      0.00000
     15      13.9385      0.00000
     16      14.0273      0.00000

 k-point  19 :       0.3636    0.1818    0.0000
  band No.  band energies     occupation 
      1     -15.0237      2.00000
      2     -15.0156      2.00000
      3     -15.0120      2.00000
      4     -15.0059      2.00000
      5     -15.0048      2.00000
      6      -4.9893      2.00000
      7      -0.2238      2.00000
      8       3.9786      2.00000
      9       3.9923      2.00000
     10       4.8626      2.00000
     11       8.7773      0.00000
     12       9.6173      0.00000
     13       9.7870      0.00000
     14      10.7820      0.00000
     15      14.7238      0.00000
     16      14.9835      0.00000

 k-point  20 :       0.4545    0.1818    0.0000
  band No.  band energies     occupation 
      1     -15.0243      2.00000
      2     -15.0172      2.00000
      3     -15.0106      2.00000
      4     -15.0054      2.00000
      5     -15.0038      2.00000
      6      -4.6725      2.00000
[...]
     13      10.3333      0.00000
     14      11.2232      0.00000
     15      15.1347      0.00000
     16      15.7401      0.00000

 k-point  43 :      -0.4545    0.2727    0.0909
  band No.  band energies     occupation 
      1     -15.0253      2.00000
      2     -15.0168      2.00000
      3     -15.0101      2.00000
      4     -15.0052      2.00000
      5     -15.0030      2.00000
      6      -4.4970      2.00000
      7      -0.8307      2.00000
      8       2.9908      2.00000
      9       3.3726      2.00000
     10       5.2808      2.00000
     11       8.1995      0.00000
     12      10.0859      0.00000
     13      10.6657      0.00000
     14      11.6260      0.00000
     15      14.5060      0.00000
     16      16.1282      0.00000

 k-point  44 :      -0.3636    0.2727    0.0909
  band No.  band energies     occupation 
      1     -15.0246      2.00000
      2     -15.0179      2.00000
      3     -15.0083      2.00000
      4     -15.0064      2.00000
      5     -15.0031      2.00000
      6      -4.4162      2.00000
      7      -0.9914      2.00000
      8       2.7507      2.00000
      9       3.5563      2.00000
     10       5.6890      2.00000
     11       7.6823      0.00000
     12       9.8169      0.00000
     13      10.9053      0.00000
     14      12.6674      0.00000
     15      13.2792      0.00000
     16      15.6087      0.00000

 k-point  45 :      -0.2727    0.2727    0.0909
  band No.  band energies     occupation 
      1     -15.0236      2.00000
      2     -15.0182      2.00000
      3     -15.0089      2.00000
      4     -15.0063      2.00000
      5     -15.0041      2.00000
      6      -4.5714      2.00000
      7      -0.8230      2.00000
      8       2.7515      2.00000
      9       3.9610      2.00000
     10       5.9548      2.00000
     11       7.4313      0.00000
     12       9.3270      0.00000
     13      10.9551      0.00000
     14      12.3516      0.00000
     15      14.1333      0.00000
     16      14.6176      0.00000

 k-point  46 :      -0.1818    0.2727    0.0909
  band No.  band energies     occupation 
      1     -15.0227      2.00000
      2     -15.0175      2.00000
      3     -15.0104      2.00000
      4     -15.0057      2.00000
      5     -15.0056      2.00000
      6      -4.8593      2.00000
      7      -0.4636      2.00000
      8       3.0638      2.00000
      9       4.4885      2.00000
     10       5.8481      2.00000
     11       7.6973      0.00000
     12       8.7285      0.00000
     13      10.6774      0.00000
     14      11.8418      0.00000
     15      13.8847      0.00000
     16      15.1727      0.00000

 k-point  47 :       0.4545    0.3636    0.0909
  band No.  band energies     occupation 
      1     -15.0285      2.00000
      2     -15.0137      2.00000
      3     -15.0132      2.00000
      4     -15.0033      2.00000
      5     -15.0027      2.00000
      6      -4.6341      2.00000
      7      -0.1198      2.00000
      8       2.7561      2.00000
      9       3.1629      2.00000
     10       4.0683      2.00000
     11       9.7044      0.00000
     12      10.0768      0.00000
     13      11.1626      0.00000
     14      11.4747      0.00000
     15      15.6226      0.00000
     16      16.1862      0.00000

 k-point  48 :      -0.4545    0.3636    0.0909
  band No.  band energies     occupation 
      1     -15.0284      2.00000
      2     -15.0142      2.00000
      3     -15.0124      2.00000
      4     -15.0036      2.00000
      5     -15.0017      2.00000
      6      -4.4167      2.00000
      7      -0.3993      2.00000
      8       2.2247      2.00000
      9       2.9904      2.00000
     10       4.5414      2.00000
     11       9.3632      0.00000
     12      10.1409      0.00000
     13      11.4884      0.00000
     14      11.8157      0.00000
     15      14.9713      0.00000
     16      16.5275      0.00000

 k-point  49 :      -0.3636    0.3636    0.0909
  band No.  band energies     occupation 
      1     -15.0272      2.00000
      2     -15.0158      2.00000
      3     -15.0103      2.00000
      4     -15.0051      2.00000
      5     -15.0018      2.00000
      6      -4.3105      2.00000
      7      -0.6539      2.00000
      8       2.0106      2.00000
      9       3.0967      2.00000
     10       5.0719      2.00000
     11       8.6223      0.00000
     12      10.5513      0.00000
     13      11.5907      0.00000
     14      11.9623      0.00000
     15      13.8704      0.00000
     16      16.1335      0.00000

 k-point  50 :      -0.2727    0.3636    0.0909
  band No.  band energies     occupation 
      1     -15.0253      2.00000
      2     -15.0172      2.00000
      3     -15.0079      2.00000
      4     -15.0070      2.00000
      5     -15.0028      2.00000
      6      -4.3737      2.00000
      7      -0.7998      2.00000
      8       2.1898      2.00000
      9       3.4350      2.00000
     10       5.6076      2.00000
     11       7.8991      0.00000
     12      10.1185      0.00000
     13      11.6026      0.00000
     14      12.6439      0.00000
     15      13.1037      0.00000
     16      15.2445      0.00000

 k-point  51 :      -0.4545    0.4545    0.0909
  band No.  band energies     occupation 
      1     -15.0310      2.00000
      2     -15.0143      2.00000
      3     -15.0124      2.00000
      4     -15.0020      2.00000
      5     -15.0010      2.00000
      6      -4.3462      2.00000
      7       0.0077      2.00000
      8       1.6327      2.00000
      9       2.9670      2.00000
     10       3.8460      2.00000
     11       9.5040      0.00000
     12      10.5288      0.00000
     13      11.8312      0.00000
     14      12.6990      0.00000
     15      15.7406      0.00000
     16      16.3143      0.00000

 k-point  52 :      -0.3636    0.4545    0.0909
  band No.  band energies     occupation 
      1     -15.0297      2.00000
      2     -15.0136      2.00000
      3     -15.0127      2.00000
      4     -15.0032      2.00000
      5     -15.0010      2.00000
      6      -4.2820      2.00000
      7      -0.2571      2.00000
      8       1.5966      2.00000
      9       2.8843      2.00000
     10       4.4325      2.00000
     11       9.6064      0.00000
     12      10.0760      0.00000
     13      11.7484      0.00000
     14      12.6173      0.00000
     15      14.7318      0.00000
     16      16.9756      0.00000

 k-point  53 :      -0.4545    0.3636    0.1818
  band No.  band energies     occupation 
      1     -15.0259      2.00000
      2     -15.0159      2.00000
      3     -15.0108      2.00000
      4     -15.0051      2.00000
      5     -15.0027      2.00000
      6      -4.5079      2.00000
      7      -0.5878      2.00000
      8       2.6904      2.00000
      9       3.0053      2.00000
     10       5.4487      2.00000
     11       8.1576      0.00000
     12      10.6458      0.00000
     13      10.6541      0.00000
     14      11.9827      0.00000
     15      14.4156      0.00000
     16      15.7775      0.00000

 k-point  54 :      -0.3636    0.3636    0.1818
  band No.  band energies     occupation 
      1     -15.0261      2.00000
      2     -15.0166      2.00000
      3     -15.0089      2.00000
      4     -15.0066      2.00000
      5     -15.0018      2.00000
      6      -4.3394      2.00000
      7      -0.7130      2.00000
      8       2.4340      2.00000
      9       2.6345      2.00000
     10       5.9099      2.00000
     11       7.6619      0.00000
     12      11.0302      0.00000
     13      11.2794      0.00000
     14      12.3563      0.00000
     15      13.1080      0.00000
     16      16.5568      0.00000

 k-point  55 :      -0.3636    0.4545    0.1818
  band No.  band energies     occupation 
      1     -15.0282      2.00000
      2     -15.0151      2.00000
      3     -15.0112      2.00000
      4     -15.0051      2.00000
      5     -15.0009      2.00000
      6      -4.2877      2.00000
      7      -0.4242      2.00000
      8       1.9174      2.00000
      9       2.4897      2.00000
     10       5.2601      2.00000
     11       8.5737      0.00000
     12      10.5438      0.00000
     13      12.1014      0.00000
     14      12.2648      0.00000
     15      13.8383      0.00000
     16      16.8429      0.00000

 k-point  56 :      -0.2727    0.4545    0.1818
  band No.  band energies     occupation 
      1     -15.0272      2.00000
      2     -15.0159      2.00000
      3     -15.0089      2.00000
      4     -15.0070      2.00000
      5     -15.0009      2.00000
      6      -4.2579      2.00000
      7      -0.5395      2.00000
      8       1.9855      2.00000
      9       2.3703      2.00000
     10       5.8710      2.00000
     11       7.8468      0.00000
     12      11.1763      0.00000
     13      11.7573      0.00000
     14      12.4472      0.00000
     15      13.1485      0.00000
     16      17.2981      0.00000


--------------------------------------------------------------------------------------------------------


 soft charge-density along one line, spin component           1
         0         1         2         3         4         5         6         7         8         9
 total charge-density along one line
 
 pseudopotential strength for first ion, spin component:           1
-16.732   0.000  -0.000   0.000   0.000   0.000  -0.000   0.000  -0.000   0.000   3.056   0.000   0.000   0.000  -0.000   0.000
 -0.000   0.000 -16.732   0.000  -0.000   0.000  -0.000   0.000   0.000   0.000   0.000   0.000   3.056   0.000   0.000   0.000
  0.000   0.000  -0.000   0.000 -16.724   0.000  -0.000   0.000  -0.000   0.000  -0.000   0.000   0.000   0.000   3.052   0.000
 -0.000   0.000  -0.000   0.000  -0.000   0.000 -16.732   0.000  -0.000   0.000   0.000   0.000   0.000   0.000   0.000   0.000
 -0.000   0.000   0.000   0.000  -0.000   0.000  -0.000   0.000 -16.724   0.000   0.000   0.000  -0.000   0.000   0.000   0.000
  3.056   0.000   0.000   0.000  -0.000   0.000   0.000   0.000   0.000   0.000   4.391   0.000  -0.000   0.000   0.000   0.000
  0.000   0.000   3.056   0.000   0.000   0.000   0.000   0.000  -0.000   0.000  -0.000   0.000   4.391   0.000  -0.000   0.000
 -0.000   0.000   0.000   0.000   3.052   0.000   0.000   0.000   0.000   0.000   0.000   0.000  -0.000   0.000   4.391   0.000
  0.000   0.000   0.000   0.000   0.000   0.000   3.056   0.000   0.000   0.000  -0.000   0.000  -0.000   0.000  -0.000   0.000
  0.000   0.000  -0.000   0.000   0.000   0.000   0.000   0.000   3.052   0.000   0.000   0.000   0.000   0.000  -0.000   0.000
 -0.000   0.000  -0.000   0.000   0.000   0.000  -0.000   0.000   0.000   0.000   0.000   0.000   0.000   0.000   0.000   0.000
  0.000   0.000   0.000   0.000  -0.000   0.000   0.000   0.000  -0.000   0.000  -0.000   0.000  -0.000   0.000  -0.000   0.000
 -0.000   0.000   0.000   0.000   0.000   0.000   0.000   0.000  -0.000   0.000  -0.000   0.000   0.000   0.000  -0.000   0.000
  0.000   0.000   0.000   0.000   0.000   0.000  -0.000   0.000   0.000   0.000   0.000   0.000   0.000   0.000  -0.000   0.000
  0.000   0.000   0.000   0.000   0.000   0.000   0.000   0.000  -0.000   0.000   0.000   0.000  -0.000   0.000  -0.000   0.000
 -0.000   0.000   0.000   0.000   0.000   0.000  -0.000   0.000  -0.000   0.000  -0.000   0.000   0.000   0.000  -0.000   0.000
  0.000   0.000  -0.000   0.000   0.000   0.000  -0.000   0.000   0.000   0.000  -0.000   0.000  -0.000   0.000  -0.000   0.000
 -0.000   0.000  -0.000   0.000   0.000   0.000   0.000   0.000  -0.000   0.000   0.000   0.000   0.000   0.000  -0.000   0.000
 total augmentation occupancy for first ion, spin component:           1
  2.000   0.000   0.000   0.000   0.000   0.000   0.000   0.000   0.000   0.000   0.000   0.000   0.000   0.000   0.000   0.000
  0.000   2.000   0.000   0.000   0.000   0.000   0.000   0.000   0.000   0.000   0.000   0.000   0.000   0.000   0.000   0.000
  0.000   0.000   2.000   0.000   0.000   0.000   0.000   0.000   0.000   0.000   0.000   0.000   0.000   0.000   0.000   0.000
  0.000   0.000   0.000   2.000   0.000   0.000   0.000   0.000   0.000   0.000   0.000   0.000   0.000   0.000   0.000   0.000
  0.000   0.000   0.000   0.000   2.000   0.000   0.000   0.000   0.000   0.000   0.000   0.000   0.000   0.000   0.000   0.000
  0.000   0.000   0.000   0.000   0.000   0.000   0.000   0.000   0.000   0.000   0.000   0.000   0.000   0.000   0.000   0.000
  0.000   0.000   0.000   0.000   0.000   0.000   0.000   0.000   0.000   0.000   0.000   0.000   0.000   0.000   0.000   0.000
  0.000   0.000   0.000   0.000   0.000   0.000   0.000   0.000   0.000   0.000   0.000   0.000   0.000   0.000   0.000   0.000
  0.000   0.000   0.000   0.000   0.000   0.000   0.000   0.000   0.000   0.000   0.000   0.000   0.000   0.000   0.000   0.000
  0.000   0.000   0.000   0.000   0.000   0.000   0.000   0.000   0.000   0.000   0.000   0.000   0.000   0.000   0.000   0.000
  0.000   0.000   0.000   0.000   0.000   0.000   0.000   0.000   0.000   0.000   2.000   0.000   0.000   0.000   0.000   0.000
  0.000   0.000   0.000   0.000   0.000   0.000   0.000   0.000   0.000   0.000   0.000   0.000   0.000   0.000   0.000   0.000
  0.000   0.000   0.000   0.000   0.000   0.000   0.000   0.000   0.000   0.000   0.000   0.000   0.667   0.000   0.000   0.000
  0.000   0.000   0.000   0.000   0.000   0.000   0.000   0.000   0.000   0.000   0.000   0.000   0.000   0.667   0.000   0.000
  0.000   0.000   0.000   0.000   0.000   0.000   0.000   0.000   0.000   0.000   0.000   0.000   0.000   0.000   0.667   0.000
  0.000   0.000   0.000   0.000   0.000   0.000   0.000   0.000   0.000   0.000   0.000   0.000   0.000   0.000   0.000   0.000
  0.000   0.000   0.000   0.000   0.000   0.000   0.000   0.000   0.000   0.000   0.000   0.000   0.000   0.000   0.000   0.000
  0.000   0.000   0.000   0.000   0.000   0.000   0.000   0.000   0.000   0.000   0.000   0.000   0.000   0.000   0.000   0.000


------------------------ aborting loop because EDIFF is reached ----------------------------------------


 


 total charge     
 
# of ion     s       p       d       tot
----------------------------------------
  1        1.372   0.731   9.978  12.081
  2        1.382   1.968   0.029   3.380
------------------------------------------------
tot        2.755   2.699  10.007  15.461
 
    CHARGE:  cpu time    0.01: real time    0.02
    FORLOC:  cpu time    0.00: real time    0.00
    FORNL :  cpu time    0.02: real time    0.02
    STRESS:  cpu time    0.07: real time    0.07
    FORCOR:  cpu time    0.00: real time    0.00
    FORHAR:  cpu time    0.00: real time    0.00

  FORCE on cell =-STRESS in cart. coord.  units (eV):
  Direction    XX          YY          ZZ          XY          YZ          ZX
  --------------------------------------------------------------------------------------
  Alpha Z    26.74714    26.74714    26.74714
  Ewald    -473.59734  -473.59734  -473.59734     0.00000    -0.00000    -0.00000
  Hartree   208.05129   208.05129   208.05129     0.00000     0.00000     0.00000
  E(xc)     -94.20940   -94.20940   -94.20940     0.00002     0.00002     0.00002
  Local    -144.16542  -144.16542  -144.16542     0.00007     0.00007     0.00007
  n-local   181.75827   183.71429   181.61674     0.09142    -1.03239     0.64424
  augment   151.49546   151.49546   151.49546    -0.00002    -0.00002    -0.00002
  Kinetic   144.36599   147.82516   139.95157     4.45095    -3.05256     1.90509
  Fock        0.00000     0.00000     0.00000     0.00000     0.00000     0.00000
  -------------------------------------------------------------------------------------
  Total       0.73240     0.73240     0.73240     0.00000     0.00000     0.00000
  in kB      18.61131    18.61131    18.61131     0.00000     0.00000     0.00000
  external pressure =       18.61 kB  Pullay stress =        0.00 kB


 VOLUME and BASIS-vectors are now :
 -----------------------------------------------------------------------------
  energy-cutoff  :      301.35
  volume of cell :       63.05
      direct lattice vectors                 reciprocal lattice vectors
     0.000000000  3.159000071  3.159000071    -0.158277933  0.158277933  0.158277933
     3.159000071  0.000000000  3.159000071     0.158277933 -0.158277933  0.158277933
     3.159000071  3.159000071  0.000000000     0.158277933  0.158277933 -0.158277933

  length of vectors
     4.467500743  4.467500743  4.467500743     0.274145421  0.274145421  0.274145421


 FORCES acting on ions
    electron-ion (+dipol)            ewald-force                    non-local-force                 convergence-correction
 -----------------------------------------------------------------------------------------------
   -.461E-14 -.107E-13 -.295E-14   -.503E-14 0.219E-14 -.637E-15   0.000E+00 0.000E+00 0.000E+00   0.161E-13 0.550E-13 0.679E-14
   0.737E-13 0.580E-13 0.594E-13   0.432E-14 -.197E-14 0.273E-14   0.662E-23 0.662E-23 0.662E-23   0.640E-14 -.711E-14 -.172E-13
 -----------------------------------------------------------------------------------------------
   0.690E-13 0.473E-13 0.565E-13   -.713E-15 0.223E-15 0.209E-14   0.662E-23 0.662E-23 0.662E-23   0.225E-13 0.479E-13 -.104E-13
 
 
 POSITION                                       TOTAL-FORCE (eV/Angst)
 -----------------------------------------------------------------------------------
      0.00000      0.00000      0.00000         0.000000      0.000000      0.000000
      3.15900      3.15900      3.15900        -0.000000     -0.000000     -0.000000
 -----------------------------------------------------------------------------------
    total drift:                                0.000000      0.000000      0.000000


--------------------------------------------------------------------------------------------------------



  FREE ENERGIE OF THE ION-ELECTRON SYSTEM (eV)
  ---------------------------------------------------
  free  energy   TOTEN  =        -7.54864113 eV

  energy  without entropy=       -7.54864113  energy(sigma->0) =       -7.54864113
 


--------------------------------------------------------------------------------------------------------


    POTLOK:  cpu time    0.01: real time    0.01


--------------------------------------------------------------------------------------------------------


     LOOP+:  cpu time    3.36: real time    3.56
    4ORBIT:  cpu time    0.00: real time    0.00
 


 total charge     
 
# of ion     s       p       d       tot
----------------------------------------
  1        1.372   0.731   9.978  12.081
  2        1.382   1.968   0.029   3.380
------------------------------------------------
tot        2.755   2.699  10.007  15.461
 
 BZINTS: Fermi energy:  6.715262; 20.000000 electrons
         Band energy:-135.626937;  BLOECHL correction:  0.000000

 total amount of memory used by VASP on root node    33405. kBytes
========================================================================

   base      :      30000. kBytes
   nonl-proj :       2068. kBytes
   fftplans  :        360. kBytes
   grid      :        432. kBytes
   one-center:         15. kBytes
   wavefun   :        530. kBytes
 
  
  
 General timing and accounting informations for this job:
 ========================================================
  
                  Total CPU time used (sec):        4.698
                            User time (sec):        3.814
                          System time (sec):        0.884
                         Elapsed time (sec):        5.827
  
                   Maximum memory used (kb):       40012.
                   Average memory used (kb):           0.
  
                          Minor page faults:       106211
                          Major page faults:           12
                 Voluntary context switches:         2413
