PROCAR lm decomposed
# of k-points:   56         # of bands:  16         # of ions:   2

 k-point    1 :    0.00000000 0.00000000 0.00000000     weight = 0.00075131

band   1 # energy  -15.01542280 # occ.  2.00000000
 
ion      s     py     pz     px    dxy    dyz    dz2    dxz    dx2    tot
  1  0.000  0.000  0.000  0.000  0.000  0.000  0.797  0.000  0.193  0.990
  2  0.000  0.000  0.000  0.000  0.000  0.000  0.000  0.000  0.000  0.000
tot  0.000  0.000  0.000  0.000  0.000  0.000  0.797  0.000  0.193  0.990
 
band   2 # energy  -15.01542280 # occ.  2.00000000
 
ion      s     py     pz     px    dxy    dyz    dz2    dxz    dx2    tot
  1  0.000  0.000  0.000  0.000  0.000  0.000  0.193  0.000  0.797  0.990
  2  0.000  0.000  0.000  0.000  0.000  0.000  0.000  0.000  0.000  0.000
tot  0.000  0.000  0.000  0.000  0.000  0.000  0.193  0.000  0.797  0.990
 
band   3 # energy  -15.01126169 # occ.  2.00000000
 
ion      s     py     pz     px    dxy    dyz    dz2    dxz    dx2    tot
  1  0.000  0.000  0.000  0.000  0.330  0.330  0.000  0.330  0.000  0.990
  2  0.000  0.000  0.000  0.000  0.000  0.000  0.000  0.000  0.000  0.000
tot  0.000  0.000  0.000  0.000  0.330  0.330  0.000  0.330  0.000  0.990
 
band   4 # energy  -15.01125232 # occ.  2.00000000
 
ion      s     py     pz     px    dxy    dyz    dz2    dxz    dx2    tot
  1  0.000  0.000  0.000  0.000  0.505  0.483  0.000  0.003  0.000  0.990
  2  0.000  0.000  0.000  0.000  0.000  0.000  0.000  0.000  0.000  0.000
tot  0.000  0.000  0.000  0.000  0.505  0.483  0.000  0.003  0.000  0.990
 
band   5 # energy  -15.01125232 # occ.  2.00000000
 
ion      s     py     pz     px    dxy    dyz    dz2    dxz    dx2    tot
  1  0.000  0.000  0.000  0.000  0.155  0.178  0.000  0.658  0.000  0.990
  2  0.000  0.000  0.000  0.000  0.000  0.000  0.000  0.000  0.000  0.000
tot  0.000  0.000  0.000  0.000  0.155  0.178  0.000  0.658  0.000  0.990
 
band   6 # energy   -5.88696961 # occ.  2.00000000
 
ion      s     py     pz     px    dxy    dyz    dz2    dxz    dx2    tot
  1  0.128  0.000  0.000  0.000  0.000  0.000  0.000  0.000  0.000  0.128
  2  0.465  0.000  0.000  0.000  0.000  0.000  0.000  0.000  0.000  0.465
tot  0.593  0.000  0.000  0.000  0.000  0.000  0.000  0.000  0.000  0.593
 
band   7 # energy    2.14988798 # occ.  2.00000000
 
ion      s     py     pz     px    dxy    dyz    dz2    dxz    dx2    tot
  1  0.552  0.000  0.000  0.000  0.000  0.000  0.000  0.000  0.000  0.552
  2  0.288  0.000  0.000  0.000  0.000  0.000  0.000  0.000  0.000  0.288
tot  0.840  0.000  0.000  0.000  0.000  0.000  0.000  0.000  0.000  0.840
 
band   8 # energy    4.73643632 # occ.  2.00000000
 
ion      s     py     pz     px    dxy    dyz    dz2    dxz    dx2    tot
  1  0.000  0.037  0.074  0.018  0.000  0.000  0.000  0.000  0.000  0.130
  2  0.000  0.117  0.232  0.058  0.000  0.000  0.000  0.000  0.000  0.407
tot  0.000  0.154  0.306  0.076  0.000  0.000  0.000  0.000  0.000  0.537
 
band   9 # energy    4.73643632 # occ.  2.00000000
 
ion      s     py     pz     px    dxy    dyz    dz2    dxz    dx2    tot
  1  0.000  0.049  0.012  0.068  0.000  0.000  0.000  0.000  0.000  0.130
  2  0.000  0.154  0.039  0.214  0.000  0.000  0.000  0.000  0.000  0.407
tot  0.000  0.204  0.051  0.282  0.000  0.000  0.000  0.000  0.000  0.537
 
band  10 # energy    4.73644304 # occ.  2.00000000
 
ion      s     py     pz     px    dxy    dyz    dz2    dxz    dx2    tot
  1  0.000  0.043  0.043  0.043  0.000  0.000  0.000  0.000  0.000  0.130
  2  0.000  0.136  0.136  0.136  0.000  0.000  0.000  0.000  0.000  0.407
tot  0.000  0.179  0.179  0.179  0.000  0.000  0.000  0.000  0.000  0.537
 
band  11 # energy   10.19260872 # occ.  0.00000000
 
ion      s     py     pz     px    dxy    dyz    dz2    dxz    dx2    tot
  1  0.000  0.249  0.152  0.040  0.000  0.000  0.000  0.000  0.000  0.441
  2  0.000  0.077  0.047  0.012  0.000  0.000  0.000  0.000  0.000  0.137
tot  0.000  0.327  0.199  0.052  0.000  0.000  0.000  0.000  0.000  0.578
 
band  12 # energy   10.19260872 # occ.  0.00000000
 
ion      s     py     pz     px    dxy    dyz    dz2    dxz    dx2    tot
  1  0.000  0.045  0.142  0.254  0.000  0.000  0.000  0.000  0.000  0.441
  2  0.000  0.014  0.044  0.079  0.000  0.000  0.000  0.000  0.000  0.137
tot  0.000  0.059  0.186  0.333  0.000  0.000  0.000  0.000  0.000  0.578
 
band  13 # energy   10.19263537 # occ.  0.00000000
 
ion      s     py     pz     px    dxy    dyz    dz2    dxz    dx2    tot
  1  0.000  0.147  0.147  0.147  0.000  0.000  0.000  0.000  0.000  0.441
  2  0.000  0.046  0.046  0.046  0.000  0.000  0.000  0.000  0.000  0.137
tot  0.000  0.193  0.193  0.193  0.000  0.000  0.000  0.000  0.000  0.578
 
band  14 # energy   11.62586574 # occ.  0.00000000
 
ion      s     py     pz     px    dxy    dyz    dz2    dxz    dx2    tot
  1  0.000  0.000  0.000  0.000  0.036  0.036  0.000  0.036  0.000  0.108
  2  0.000  0.000  0.000  0.000  0.039  0.039  0.000  0.039  0.000  0.118
tot  0.000  0.000  0.000  0.000  0.075  0.075  0.000  0.075  0.000  0.226
 
band  15 # energy   11.62587606 # occ.  0.00000000
 
ion      s     py     pz     px    dxy    dyz    dz2    dxz    dx2    tot
  1  0.000  0.000  0.000  0.000  0.068  0.027  0.000  0.013  0.000  0.108
  2  0.000  0.000  0.000  0.000  0.075  0.029  0.000  0.014  0.000  0.118
tot  0.000  0.000  0.000  0.000  0.143  0.056  0.000  0.027  0.000  0.226
 
band  16 # energy   11.62587606 # occ.  0.00000000
 
ion      s     py     pz     px    dxy    dyz    dz2    dxz    dx2    tot
  1  0.000  0.000  0.000  0.000  0.004  0.045  0.000  0.059  0.000  0.108
  2  0.000  0.000  0.000  0.000  0.004  0.049  0.000  0.065  0.000  0.118
tot  0.000  0.000  0.000  0.000  0.008  0.094  0.000  0.124  0.000  0.226
 

 k-point    2 :    0.09090909 0.00000000 0.00000000     weight = 0.00601052

band   1 # energy  -15.01591479 # occ.  2.00000000
 
ion      s     py     pz     px    dxy    dyz    dz2    dxz    dx2    tot
  1  0.000  0.000  0.000  0.000  0.004  0.000  0.737  0.004  0.246  0.990
  2  0.000  0.000  0.000  0.000  0.000  0.000  0.000  0.000  0.000  0.000
tot  0.000  0.000  0.000  0.000  0.004  0.000  0.737  0.004  0.246  0.990
 
band   2 # energy  -15.01590884 # occ.  2.00000000
 
ion      s     py     pz     px    dxy    dyz    dz2    dxz    dx2    tot
  1  0.000  0.000  0.000  0.000  0.001  0.004  0.246  0.001  0.738  0.990
  2  0.000  0.000  0.000  0.000  0.000  0.000  0.000  0.000  0.000  0.000
tot  0.000  0.000  0.000  0.000  0.001  0.004  0.246  0.001  0.738  0.990
 
band   3 # energy  -15.01125039 # occ.  2.00000000
 
ion      s     py     pz     px    dxy    dyz    dz2    dxz    dx2    tot
  1  0.000  0.000  0.000  0.000  0.331  0.328  0.000  0.331  0.000  0.990
  2  0.000  0.000  0.000  0.000  0.000  0.000  0.000  0.000  0.000  0.000
tot  0.000  0.000  0.000  0.000  0.331  0.328  0.000  0.331  0.000  0.990
 
band   4 # energy  -15.01092010 # occ.  2.00000000
 
ion      s     py     pz     px    dxy    dyz    dz2    dxz    dx2    tot
  1  0.000  0.000  0.000  0.000  0.163  0.659  0.001  0.163  0.004  0.990
  2  0.000  0.000  0.000  0.000  0.000  0.000  0.000  0.000  0.000  0.000
tot  0.000  0.000  0.000  0.000  0.163  0.659  0.001  0.163  0.004  0.990
 
band   5 # energy  -15.01090583 # occ.  2.00000000
 
ion      s     py     pz     px    dxy    dyz    dz2    dxz    dx2    tot
  1  0.000  0.000  0.000  0.000  0.492  0.000  0.005  0.492  0.002  0.990
  2  0.000  0.000  0.000  0.000  0.000  0.000  0.000  0.000  0.000  0.000
tot  0.000  0.000  0.000  0.000  0.492  0.000  0.005  0.492  0.002  0.990
 
band   6 # energy   -5.81776268 # occ.  2.00000000
 
ion      s     py     pz     px    dxy    dyz    dz2    dxz    dx2    tot
  1  0.124  0.000  0.000  0.000  0.000  0.000  0.000  0.000  0.000  0.125
  2  0.470  0.000  0.000  0.000  0.000  0.000  0.000  0.000  0.000  0.471
tot  0.594  0.001  0.001  0.001  0.000  0.000  0.000  0.000  0.000  0.596
 
band   7 # energy    1.75030165 # occ.  2.00000000
 
ion      s     py     pz     px    dxy    dyz    dz2    dxz    dx2    tot
  1  0.494  0.003  0.003  0.003  0.000  0.000  0.000  0.000  0.000  0.503
  2  0.249  0.012  0.012  0.012  0.000  0.000  0.000  0.000  0.000  0.285
tot  0.743  0.015  0.015  0.015  0.000  0.000  0.000  0.000  0.000  0.788
 
band   8 # energy    4.74826755 # occ.  2.00000000
 
ion      s     py     pz     px    dxy    dyz    dz2    dxz    dx2    tot
  1  0.000  0.062  0.062  0.000  0.000  0.000  0.001  0.000  0.000  0.126
  2  0.000  0.204  0.204  0.000  0.000  0.000  0.000  0.000  0.000  0.408
tot  0.000  0.266  0.266  0.000  0.000  0.000  0.001  0.000  0.000  0.534
 
band   9 # energy    4.74827284 # occ.  2.00000000
 
ion      s     py     pz     px    dxy    dyz    dz2    dxz    dx2    tot
  1  0.000  0.021  0.021  0.083  0.000  0.000  0.000  0.000  0.001  0.126
  2  0.000  0.068  0.068  0.272  0.000  0.000  0.000  0.000  0.000  0.408
tot  0.000  0.089  0.089  0.355  0.000  0.000  0.000  0.000  0.001  0.534
 
band  10 # energy    5.02563169 # occ.  2.00000000
 
ion      s     py     pz     px    dxy    dyz    dz2    dxz    dx2    tot
  1  0.063  0.040  0.040  0.040  0.000  0.000  0.000  0.000  0.000  0.185
  2  0.031  0.120  0.120  0.120  0.000  0.000  0.000  0.000  0.000  0.392
tot  0.095  0.160  0.160  0.160  0.001  0.001  0.000  0.001  0.000  0.577
 
band  11 # energy    9.79697743 # occ.  0.00000000
 
ion      s     py     pz     px    dxy    dyz    dz2    dxz    dx2    tot
  1  0.000  0.203  0.203  0.000  0.000  0.000  0.008  0.000  0.003  0.416
  2  0.000  0.060  0.060  0.000  0.001  0.000  0.011  0.001  0.004  0.136
tot  0.000  0.263  0.263  0.000  0.001  0.000  0.018  0.001  0.006  0.552
 
band  12 # energy    9.79700203 # occ.  0.00000000
 
ion      s     py     pz     px    dxy    dyz    dz2    dxz    dx2    tot
  1  0.000  0.068  0.068  0.271  0.000  0.000  0.003  0.000  0.008  0.416
  2  0.000  0.020  0.020  0.080  0.000  0.001  0.004  0.000  0.011  0.136
tot  0.000  0.087  0.087  0.351  0.000  0.001  0.006  0.000  0.018  0.552
 
band  13 # energy    9.81613789 # occ.  0.00000000
 
ion      s     py     pz     px    dxy    dyz    dz2    dxz    dx2    tot
  1  0.021  0.123  0.123  0.123  0.000  0.000  0.000  0.000  0.000  0.391
  2  0.011  0.044  0.044  0.044  0.002  0.002  0.000  0.002  0.000  0.151
tot  0.032  0.168  0.168  0.167  0.002  0.002  0.000  0.002  0.000  0.541
 
band  14 # energy   11.57153064 # occ.  0.00000000
 
ion      s     py     pz     px    dxy    dyz    dz2    dxz    dx2    tot
  1  0.001  0.011  0.011  0.011  0.030  0.030  0.000  0.030  0.000  0.122
  2  0.001  0.000  0.000  0.000  0.030  0.030  0.000  0.030  0.000  0.093
tot  0.002  0.011  0.011  0.011  0.060  0.060  0.000  0.060  0.000  0.215
 
band  15 # energy   11.79874794 # occ.  0.00000000
 
ion      s     py     pz     px    dxy    dyz    dz2    dxz    dx2    tot
  1  0.000  0.001  0.001  0.005  0.018  0.071  0.000  0.018  0.000  0.114
  2  0.000  0.000  0.000  0.000  0.020  0.078  0.000  0.020  0.000  0.118
tot  0.000  0.001  0.001  0.005  0.037  0.149  0.000  0.037  0.000  0.232
 
band  16 # energy   11.79876017 # occ.  0.00000000
 
ion      s     py     pz     px    dxy    dyz    dz2    dxz    dx2    tot
  1  0.000  0.004  0.004  0.000  0.053  0.000  0.000  0.053  0.000  0.114
  2  0.000  0.000  0.000  0.000  0.059  0.000  0.000  0.059  0.000  0.118
tot  0.000  0.004  0.004  0.000  0.112  0.000  0.000  0.112  0.000  0.232
 

 k-point    3 :    0.18181818 0.00000000 0.00000000     weight = 0.00601052

band   1 # energy  -15.01725557 # occ.  2.00000000
 
ion      s     py     pz     px    dxy    dyz    dz2    dxz    dx2    tot
  1  0.000  0.000  0.000  0.000  0.017  0.000  0.717  0.017  0.239  0.990
  2  0.000  0.000  0.000  0.000  0.000  0.000  0.000  0.000  0.000  0.000
tot  0.000  0.000  0.000  0.000  0.017  0.000  0.717  0.017  0.239  0.990
 
band   2 # energy  -15.01724208 # occ.  2.00000000
 
ion      s     py     pz     px    dxy    dyz    dz2    dxz    dx2    tot
  1  0.000  0.000  0.000  0.000  0.006  0.021  0.239  0.006  0.718  0.990
  2  0.000  0.000  0.000  0.000  0.000  0.000  0.000  0.000  0.000  0.000
tot  0.000  0.000  0.000  0.000  0.006  0.021  0.239  0.006  0.718  0.990
 
band   3 # energy  -15.01114510 # occ.  2.00000000
 
ion      s     py     pz     px    dxy    dyz    dz2    dxz    dx2    tot
  1  0.000  0.000  0.000  0.000  0.329  0.332  0.000  0.329  0.000  0.991
  2  0.000  0.000  0.000  0.000  0.000  0.000  0.000  0.000  0.000  0.000
tot  0.000  0.000  0.000  0.000  0.329  0.332  0.000  0.329  0.000  0.991
 
band   4 # energy  -15.00976846 # occ.  2.00000000
 
ion      s     py     pz     px    dxy    dyz    dz2    dxz    dx2    tot
  1  0.000  0.000  0.000  0.000  0.160  0.637  0.008  0.160  0.025  0.991
  2  0.000  0.000  0.000  0.000  0.000  0.000  0.000  0.000  0.000  0.000
tot  0.000  0.000  0.000  0.000  0.160  0.637  0.008  0.160  0.025  0.991
 
band   5 # energy  -15.00974664 # occ.  2.00000000
 
ion      s     py     pz     px    dxy    dyz    dz2    dxz    dx2    tot
  1  0.000  0.000  0.000  0.000  0.478  0.000  0.026  0.478  0.009  0.991
  2  0.000  0.000  0.000  0.000  0.000  0.000  0.000  0.000  0.000  0.000
tot  0.000  0.000  0.000  0.000  0.478  0.000  0.026  0.478  0.009  0.991
 
band   6 # energy   -5.61626297 # occ.  2.00000000
 
ion      s     py     pz     px    dxy    dyz    dz2    dxz    dx2    tot
  1  0.111  0.002  0.002  0.002  0.000  0.000  0.000  0.000  0.000  0.116
  2  0.486  0.001  0.001  0.001  0.000  0.000  0.000  0.000  0.000  0.488
tot  0.597  0.002  0.002  0.002  0.000  0.000  0.000  0.000  0.000  0.604
 
band   7 # energy    0.90249714 # occ.  2.00000000
 
ion      s     py     pz     px    dxy    dyz    dz2    dxz    dx2    tot
  1  0.436  0.005  0.005  0.005  0.000  0.000  0.000  0.000  0.000  0.452
  2  0.193  0.024  0.024  0.024  0.000  0.000  0.000  0.000  0.000  0.263
tot  0.629  0.029  0.029  0.029  0.000  0.000  0.000  0.000  0.000  0.716
 
band   8 # energy    4.78859460 # occ.  2.00000000
 
ion      s     py     pz     px    dxy    dyz    dz2    dxz    dx2    tot
  1  0.000  0.054  0.054  0.000  0.001  0.000  0.005  0.001  0.002  0.116
  2  0.000  0.206  0.206  0.000  0.000  0.000  0.000  0.000  0.000  0.413
tot  0.000  0.260  0.260  0.000  0.001  0.000  0.005  0.001  0.002  0.528
 
band   9 # energy    4.78859790 # occ.  2.00000000
 
ion      s     py     pz     px    dxy    dyz    dz2    dxz    dx2    tot
  1  0.000  0.018  0.018  0.072  0.000  0.001  0.002  0.000  0.005  0.116
  2  0.000  0.069  0.069  0.275  0.000  0.000  0.000  0.000  0.000  0.413
tot  0.000  0.087  0.087  0.347  0.000  0.001  0.002  0.000  0.005  0.528
 
band  10 # energy    5.55078569 # occ.  2.00000000
 
ion      s     py     pz     px    dxy    dyz    dz2    dxz    dx2    tot
  1  0.134  0.037  0.037  0.037  0.002  0.002  0.000  0.002  0.000  0.251
  2  0.062  0.098  0.098  0.098  0.001  0.001  0.000  0.001  0.000  0.359
tot  0.196  0.135  0.135  0.135  0.003  0.003  0.000  0.003  0.000  0.610
 
band  11 # energy    9.01994115 # occ.  0.00000000
 
ion      s     py     pz     px    dxy    dyz    dz2    dxz    dx2    tot
  1  0.000  0.190  0.190  0.000  0.000  0.000  0.013  0.000  0.004  0.397
  2  0.000  0.047  0.047  0.000  0.001  0.000  0.021  0.001  0.007  0.126
tot  0.000  0.237  0.237  0.000  0.002  0.000  0.034  0.002  0.011  0.523
 
band  12 # energy    9.01996715 # occ.  0.00000000
 
ion      s     py     pz     px    dxy    dyz    dz2    dxz    dx2    tot
  1  0.000  0.063  0.063  0.253  0.000  0.000  0.004  0.000  0.013  0.397
  2  0.000  0.016  0.016  0.063  0.000  0.002  0.007  0.000  0.021  0.126
tot  0.000  0.079  0.079  0.316  0.001  0.002  0.011  0.001  0.034  0.523
 
band  13 # energy    9.06757546 # occ.  0.00000000
 
ion      s     py     pz     px    dxy    dyz    dz2    dxz    dx2    tot
  1  0.056  0.094  0.094  0.094  0.000  0.000  0.000  0.000  0.000  0.338
  2  0.028  0.044  0.044  0.044  0.003  0.003  0.000  0.003  0.000  0.171
tot  0.084  0.138  0.138  0.138  0.003  0.004  0.000  0.003  0.000  0.509
 
band  14 # energy   11.66548677 # occ.  0.00000000
 
ion      s     py     pz     px    dxy    dyz    dz2    dxz    dx2    tot
  1  0.001  0.018  0.018  0.018  0.024  0.024  0.000  0.024  0.000  0.126
  2  0.006  0.004  0.004  0.004  0.022  0.022  0.000  0.022  0.000  0.086
tot  0.007  0.022  0.022  0.022  0.046  0.046  0.000  0.046  0.000  0.211
 
band  15 # energy   12.28119457 # occ.  0.00000000
 
ion      s     py     pz     px    dxy    dyz    dz2    dxz    dx2    tot
  1  0.000  0.002  0.002  0.010  0.017  0.069  0.000  0.017  0.000  0.118
  2  0.000  0.001  0.001  0.003  0.020  0.079  0.000  0.020  0.001  0.124
tot  0.000  0.003  0.003  0.012  0.037  0.148  0.001  0.037  0.002  0.242
 
band  16 # energy   12.28120842 # occ.  0.00000000
 
ion      s     py     pz     px    dxy    dyz    dz2    dxz    dx2    tot
  1  0.000  0.007  0.007  0.000  0.052  0.000  0.000  0.052  0.000  0.118
  2  0.000  0.002  0.002  0.000  0.059  0.000  0.001  0.059  0.000  0.124
tot  0.000  0.009  0.009  0.000  0.111  0.000  0.002  0.111  0.001  0.242
 

 k-point    4 :    0.27272727 0.00000000 0.00000000     weight = 0.00601052

band   1 # energy  -15.01880266 # occ.  2.00000000
 
ion      s     py     pz     px    dxy    dyz    dz2    dxz    dx2    tot
  1  0.000  0.000  0.000  0.000  0.035  0.000  0.689  0.035  0.230  0.990
  2  0.000  0.000  0.000  0.000  0.000  0.000  0.000  0.000  0.000  0.000
tot  0.000  0.000  0.000  0.000  0.035  0.000  0.689  0.035  0.230  0.990
 
band   2 # energy  -15.01878368 # occ.  2.00000000
 
ion      s     py     pz     px    dxy    dyz    dz2    dxz    dx2    tot
  1  0.000  0.000  0.000  0.000  0.012  0.046  0.230  0.012  0.690  0.990
  2  0.000  0.000  0.000  0.000  0.000  0.000  0.000  0.000  0.000  0.000
tot  0.000  0.000  0.000  0.000  0.012  0.046  0.230  0.012  0.690  0.990
 
band   3 # energy  -15.01064434 # occ.  2.00000000
 
ion      s     py     pz     px    dxy    dyz    dz2    dxz    dx2    tot
  1  0.000  0.000  0.000  0.000  0.329  0.332  0.000  0.329  0.000  0.991
  2  0.000  0.000  0.000  0.000  0.000  0.000  0.000  0.000  0.000  0.000
tot  0.000  0.000  0.000  0.000  0.329  0.332  0.000  0.329  0.000  0.991
 
band   4 # energy  -15.00765147 # occ.  2.00000000
 
ion      s     py     pz     px    dxy    dyz    dz2    dxz    dx2    tot
  1  0.000  0.000  0.000  0.000  0.154  0.613  0.017  0.154  0.052  0.991
  2  0.000  0.000  0.000  0.000  0.000  0.000  0.000  0.000  0.000  0.000
tot  0.000  0.000  0.000  0.000  0.154  0.613  0.017  0.154  0.052  0.991
 
band   5 # energy  -15.00762418 # occ.  2.00000000
 
ion      s     py     pz     px    dxy    dyz    dz2    dxz    dx2    tot
  1  0.000  0.000  0.000  0.000  0.460  0.000  0.053  0.460  0.018  0.991
  2  0.000  0.000  0.000  0.000  0.000  0.000  0.000  0.000  0.000  0.000
tot  0.000  0.000  0.000  0.000  0.460  0.000  0.053  0.460  0.018  0.991
 
band   6 # energy   -5.30562664 # occ.  2.00000000
 
ion      s     py     pz     px    dxy    dyz    dz2    dxz    dx2    tot
  1  0.087  0.004  0.004  0.004  0.000  0.000  0.000  0.000  0.000  0.098
  2  0.517  0.001  0.001  0.001  0.000  0.000  0.000  0.000  0.000  0.520
tot  0.604  0.005  0.005  0.005  0.000  0.000  0.000  0.000  0.000  0.618
 
band   7 # energy   -0.02690971 # occ.  2.00000000
 
ion      s     py     pz     px    dxy    dyz    dz2    dxz    dx2    tot
  1  0.422  0.005  0.005  0.005  0.000  0.000  0.000  0.000  0.000  0.437
  2  0.138  0.028  0.028  0.028  0.000  0.000  0.000  0.000  0.000  0.221
tot  0.559  0.033  0.033  0.033  0.000  0.000  0.000  0.000  0.000  0.658
 
band   8 # energy    4.86528953 # occ.  2.00000000
 
ion      s     py     pz     px    dxy    dyz    dz2    dxz    dx2    tot
  1  0.000  0.040  0.040  0.000  0.001  0.000  0.010  0.001  0.003  0.096
  2  0.000  0.212  0.212  0.000  0.000  0.000  0.001  0.000  0.000  0.425
tot  0.000  0.252  0.252  0.000  0.001  0.000  0.011  0.001  0.004  0.521
 
band   9 # energy    4.86528961 # occ.  2.00000000
 
ion      s     py     pz     px    dxy    dyz    dz2    dxz    dx2    tot
  1  0.000  0.013  0.013  0.053  0.000  0.001  0.003  0.000  0.010  0.096
  2  0.000  0.071  0.071  0.282  0.000  0.000  0.000  0.000  0.001  0.425
tot  0.000  0.084  0.084  0.336  0.000  0.002  0.004  0.000  0.011  0.521
 
band  10 # energy    6.00619922 # occ.  2.00000000
 
ion      s     py     pz     px    dxy    dyz    dz2    dxz    dx2    tot
  1  0.164  0.038  0.038  0.038  0.003  0.003  0.000  0.003  0.000  0.287
  2  0.074  0.078  0.078  0.078  0.002  0.002  0.000  0.002  0.000  0.314
tot  0.238  0.116  0.116  0.116  0.005  0.005  0.000  0.005  0.000  0.601
 
band  11 # energy    8.25000025 # occ.  0.00000000
 
ion      s     py     pz     px    dxy    dyz    dz2    dxz    dx2    tot
  1  0.000  0.193  0.193  0.000  0.000  0.000  0.012  0.000  0.004  0.401
  2  0.000  0.034  0.034  0.000  0.002  0.000  0.025  0.002  0.008  0.106
tot  0.000  0.227  0.227  0.000  0.002  0.000  0.037  0.002  0.012  0.507
 
band  12 # energy    8.25002864 # occ.  0.00000000
 
ion      s     py     pz     px    dxy    dyz    dz2    dxz    dx2    tot
  1  0.000  0.064  0.064  0.257  0.000  0.000  0.004  0.000  0.012  0.401
  2  0.000  0.011  0.011  0.045  0.001  0.003  0.008  0.001  0.025  0.106
tot  0.000  0.076  0.076  0.302  0.001  0.003  0.012  0.001  0.037  0.507
 
band  13 # energy    8.31157706 # occ.  0.00000000
 
ion      s     py     pz     px    dxy    dyz    dz2    dxz    dx2    tot
  1  0.091  0.074  0.074  0.074  0.000  0.000  0.000  0.000  0.000  0.314
  2  0.042  0.045  0.045  0.045  0.004  0.004  0.000  0.004  0.000  0.189
tot  0.132  0.120  0.120  0.120  0.004  0.004  0.000  0.004  0.000  0.503
 
band  14 # energy   12.16184967 # occ.  0.00000000
 
ion      s     py     pz     px    dxy    dyz    dz2    dxz    dx2    tot
  1  0.000  0.021  0.021  0.021  0.020  0.020  0.000  0.020  0.000  0.124
  2  0.012  0.015  0.015  0.015  0.018  0.018  0.000  0.018  0.000  0.110
tot  0.012  0.036  0.036  0.036  0.038  0.038  0.000  0.038  0.000  0.234
 
band  15 # energy   13.04404685 # occ.  0.00000000
 
ion      s     py     pz     px    dxy    dyz    dz2    dxz    dx2    tot
  1  0.000  0.003  0.003  0.014  0.016  0.065  0.000  0.016  0.000  0.119
  2  0.000  0.002  0.002  0.007  0.020  0.081  0.001  0.020  0.003  0.136
tot  0.000  0.005  0.005  0.020  0.037  0.147  0.001  0.037  0.003  0.254
 
band  16 # energy   13.04405955 # occ.  0.00000000
 
ion      s     py     pz     px    dxy    dyz    dz2    dxz    dx2    tot
  1  0.000  0.010  0.010  0.000  0.049  0.000  0.000  0.049  0.000  0.119
  2  0.000  0.005  0.005  0.000  0.061  0.000  0.003  0.061  0.001  0.136
tot  0.000  0.015  0.015  0.000  0.110  0.000  0.003  0.110  0.001  0.254
 

 k-point    5 :    0.36363636 0.00000000 0.00000000     weight = 0.00601052

band   1 # energy  -15.02023363 # occ.  2.00000000
 
ion      s     py     pz     px    dxy    dyz    dz2    dxz    dx2    tot
  1  0.000  0.000  0.000  0.000  0.047  0.000  0.672  0.047  0.224  0.990
  2  0.000  0.000  0.000  0.000  0.000  0.000  0.000  0.000  0.000  0.000
tot  0.000  0.000  0.000  0.000  0.047  0.000  0.672  0.047  0.224  0.990
 
band   2 # energy  -15.02021213 # occ.  2.00000000
 
ion      s     py     pz     px    dxy    dyz    dz2    dxz    dx2    tot
  1  0.000  0.000  0.000  0.000  0.016  0.061  0.224  0.016  0.673  0.990
  2  0.000  0.000  0.000  0.000  0.000  0.000  0.000  0.000  0.000  0.000
tot  0.000  0.000  0.000  0.000  0.016  0.061  0.224  0.016  0.673  0.990
 
band   3 # energy  -15.01016914 # occ.  2.00000000
 
ion      s     py     pz     px    dxy    dyz    dz2    dxz    dx2    tot
  1  0.000  0.000  0.000  0.000  0.329  0.332  0.000  0.329  0.000  0.991
  2  0.000  0.000  0.000  0.000  0.000  0.000  0.000  0.000  0.000  0.000
tot  0.000  0.000  0.000  0.000  0.329  0.332  0.000  0.329  0.000  0.991
 
band   4 # energy  -15.00579185 # occ.  2.00000000
 
ion      s     py     pz     px    dxy    dyz    dz2    dxz    dx2    tot
  1  0.000  0.000  0.000  0.000  0.150  0.598  0.023  0.150  0.070  0.991
  2  0.000  0.000  0.000  0.000  0.000  0.000  0.000  0.000  0.000  0.000
tot  0.000  0.000  0.000  0.000  0.150  0.598  0.023  0.150  0.070  0.991
 
band   5 # energy  -15.00576204 # occ.  2.00000000
 
ion      s     py     pz     px    dxy    dyz    dz2    dxz    dx2    tot
  1  0.000  0.000  0.000  0.000  0.449  0.000  0.070  0.449  0.023  0.991
  2  0.000  0.000  0.000  0.000  0.000  0.000  0.000  0.000  0.000  0.000
tot  0.000  0.000  0.000  0.000  0.449  0.000  0.070  0.449  0.023  0.991
 
band   6 # energy   -4.94427667 # occ.  2.00000000
 
ion      s     py     pz     px    dxy    dyz    dz2    dxz    dx2    tot
  1  0.049  0.006  0.006  0.006  0.000  0.000  0.000  0.000  0.000  0.068
  2  0.568  0.001  0.001  0.001  0.000  0.000  0.000  0.000  0.000  0.570
tot  0.617  0.007  0.007  0.007  0.000  0.000  0.000  0.000  0.000  0.639
 
band   7 # energy   -0.84633864 # occ.  2.00000000
 
ion      s     py     pz     px    dxy    dyz    dz2    dxz    dx2    tot
  1  0.440  0.003  0.003  0.003  0.000  0.000  0.000  0.000  0.000  0.449
  2  0.074  0.029  0.029  0.029  0.000  0.000  0.000  0.000  0.000  0.162
tot  0.514  0.032  0.032  0.032  0.000  0.000  0.000  0.000  0.000  0.611
 
band   8 # energy    4.97037448 # occ.  2.00000000
 
ion      s     py     pz     px    dxy    dyz    dz2    dxz    dx2    tot
  1  0.000  0.007  0.007  0.028  0.001  0.002  0.006  0.001  0.017  0.068
  2  0.000  0.074  0.074  0.298  0.000  0.000  0.000  0.000  0.001  0.448
tot  0.000  0.081  0.081  0.326  0.001  0.002  0.006  0.001  0.018  0.516
 
band   9 # energy    4.97037867 # occ.  2.00000000
 
ion      s     py     pz     px    dxy    dyz    dz2    dxz    dx2    tot
  1  0.000  0.021  0.021  0.000  0.002  0.000  0.017  0.002  0.006  0.068
  2  0.000  0.223  0.223  0.000  0.000  0.000  0.001  0.000  0.000  0.448
tot  0.000  0.244  0.244  0.000  0.002  0.000  0.018  0.002  0.006  0.516
 
band  10 # energy    6.36737099 # occ.  2.00000000
 
ion      s     py     pz     px    dxy    dyz    dz2    dxz    dx2    tot
  1  0.165  0.041  0.041  0.041  0.003  0.003  0.000  0.003  0.000  0.299
  2  0.076  0.062  0.062  0.062  0.003  0.003  0.000  0.003  0.000  0.270
tot  0.241  0.103  0.103  0.103  0.006  0.006  0.000  0.006  0.000  0.569
 
band  11 # energy    7.63749404 # occ.  0.00000000
 
ion      s     py     pz     px    dxy    dyz    dz2    dxz    dx2    tot
  1  0.000  0.206  0.206  0.000  0.000  0.000  0.006  0.000  0.002  0.421
  2  0.000  0.018  0.018  0.000  0.003  0.000  0.027  0.003  0.009  0.076
tot  0.000  0.224  0.224  0.000  0.003  0.000  0.033  0.003  0.011  0.497
 
band  12 # energy    7.63752606 # occ.  0.00000000
 
ion      s     py     pz     px    dxy    dyz    dz2    dxz    dx2    tot
  1  0.000  0.069  0.069  0.275  0.000  0.000  0.002  0.000  0.006  0.421
  2  0.000  0.006  0.006  0.024  0.001  0.003  0.009  0.001  0.027  0.076
tot  0.000  0.075  0.075  0.299  0.001  0.003  0.011  0.001  0.033  0.497
 
band  13 # energy    7.65940213 # occ.  0.00000000
 
ion      s     py     pz     px    dxy    dyz    dz2    dxz    dx2    tot
  1  0.124  0.059  0.059  0.059  0.001  0.001  0.000  0.001  0.000  0.305
  2  0.051  0.048  0.048  0.048  0.003  0.003  0.000  0.003  0.000  0.206
tot  0.175  0.108  0.108  0.107  0.005  0.005  0.000  0.005  0.000  0.511
 
band  14 # energy   13.07452002 # occ.  0.00000000
 
ion      s     py     pz     px    dxy    dyz    dz2    dxz    dx2    tot
  1  0.001  0.023  0.023  0.023  0.019  0.019  0.000  0.019  0.000  0.125
  2  0.013  0.030  0.030  0.030  0.015  0.015  0.000  0.015  0.000  0.147
tot  0.014  0.053  0.053  0.053  0.033  0.033  0.000  0.033  0.000  0.273
 
band  15 # energy   14.05684556 # occ.  0.00000000
 
ion      s     py     pz     px    dxy    dyz    dz2    dxz    dx2    tot
  1  0.000  0.004  0.004  0.018  0.015  0.059  0.000  0.015  0.000  0.115
  2  0.000  0.003  0.003  0.010  0.022  0.088  0.001  0.022  0.004  0.153
tot  0.000  0.007  0.007  0.028  0.037  0.147  0.001  0.037  0.004  0.268
 
band  16 # energy   14.05685469 # occ.  0.00000000
 
ion      s     py     pz     px    dxy    dyz    dz2    dxz    dx2    tot
  1  0.000  0.013  0.013  0.000  0.044  0.000  0.000  0.044  0.000  0.115
  2  0.000  0.008  0.008  0.000  0.066  0.000  0.004  0.066  0.001  0.153
tot  0.000  0.021  0.021  0.000  0.110  0.000  0.004  0.110  0.001  0.268
 

 k-point    6 :    0.45454545 0.00000000 0.00000000     weight = 0.00601052

band   1 # energy  -15.02126027 # occ.  2.00000000
 
ion      s     py     pz     px    dxy    dyz    dz2    dxz    dx2    tot
  1  0.000  0.000  0.000  0.000  0.050  0.000  0.667  0.050  0.222  0.989
  2  0.000  0.000  0.000  0.000  0.000  0.000  0.000  0.000  0.000  0.000
tot  0.000  0.000  0.000  0.000  0.050  0.000  0.667  0.050  0.222  0.990
 
band   2 # energy  -15.02123814 # occ.  2.00000000
 
ion      s     py     pz     px    dxy    dyz    dz2    dxz    dx2    tot
  1  0.000  0.000  0.000  0.000  0.017  0.065  0.223  0.017  0.668  0.989
  2  0.000  0.000  0.000  0.000  0.000  0.000  0.000  0.000  0.000  0.000
tot  0.000  0.000  0.000  0.000  0.017  0.065  0.223  0.017  0.668  0.990
 
band   3 # energy  -15.00984239 # occ.  2.00000000
 
ion      s     py     pz     px    dxy    dyz    dz2    dxz    dx2    tot
  1  0.000  0.000  0.000  0.000  0.329  0.332  0.000  0.329  0.000  0.990
  2  0.000  0.000  0.000  0.000  0.000  0.000  0.000  0.000  0.000  0.000
tot  0.000  0.000  0.000  0.000  0.329  0.332  0.000  0.329  0.000  0.991
 
band   4 # energy  -15.00470333 # occ.  2.00000000
 
ion      s     py     pz     px    dxy    dyz    dz2    dxz    dx2    tot
  1  0.000  0.000  0.000  0.000  0.149  0.594  0.025  0.149  0.074  0.991
  2  0.000  0.000  0.000  0.000  0.000  0.000  0.000  0.000  0.000  0.000