<?xml version="1.0" encoding="ISO-8859-1"?>
<modeling>
 <generator>
  <i name="program" type="string">vasp </i>
  <i name="version" type="string">5.3.3  </i>
  <i name="subversion" type="string">18Dez12 (build Jan 07 2018 16:34:56) complex                          parallel </i>
  <i name="platform" type="string">LinuxIFC </i>
  <i name="date" type="string">2018 06 20 </i>
  <i name="time" type="string">05:25:38 </i>
 </generator>
 <incar>
  <i type="int" name="ISTART">     1</i>
  <i type="string" name="PREC">high</i>
  <i type="int" name="IALGO">    38</i>
  <i type="logical" name="LSORBIT"> F  </i>
  <i type="int" name="ICHARG">    11</i>
  <i type="int" name="NELM">   300</i>
  <i name="EDIFF">      0.00000100</i>
  <i type="int" name="NEDOS">  5000</i>
  <v name="MAGMOM">      0.00000000      0.00000000************************************************      0.00000000********************************      0.00000000      0.00000000      0.00000000      0.00000000     -1.00000000     -1.00000000      0.00000000      0.00000000      0.00000000      0.00000000      0.00000000      0.00000000
      0.00000000      0.00000000      0.00000000      0.00000000      0.00000000      0.00000000      0.00000000      0.00000000      0.00000000      0.00000000      0.00000000      0.00000000      0.00000000      0.00000000      0.00000000      0.00000000      0.00000000      0.00000000      0.00000000      0.00000000
     -1.00000000     -1.00000000****************      0.00000000      0.00000000      0.00000000      0.00000000      0.00000000      0.00000000      0.00000000      0.00000000      0.00000000      0.00000000      0.00000000      0.00000000      0.00000000      0.00000000      0.00000000      0.00000000      0.00000000
      1.00000000      1.00000000      0.00000000      0.00000000      0.00000000      0.00000000      0.00000000      0.00000000      0.00000000      0.00000000      0.00000000      0.00000000      0.00000000      0.00000000      0.00000000      0.00000000             NaN             NaN             NaN             NaN
             NaN      0.00000000      0.00000000      0.00000000      0.00000000      0.00000000      0.00000000      0.00000000      0.00000000      0.00000000      0.00000000      0.00000000      0.00000000      0.00000000      0.00000000      0.00000000      0.00000000      0.00000000      0.00000000      0.00000000
      0.00000000      0.00000000      0.00000000      0.00000000      0.00000000      0.00000000      0.00000000      0.00000000      0.00000000      0.00000000      0.00000000      0.00000000     14.00000000    118.71000000      1.56600000     14.00000000   1893.10920000      0.00000000      0.00000000      0.00000000
      0.00000000      0.00000000    241.08300000    180.81200000    439.82500000      0.00000000      0.00000000     20.00000000     21.00000000     22.05000000     23.15250000     24.31012500     25.52563125     26.80191281     28.14200845     29.54910888     31.02656432     32.57789254     34.20678716     35.91712652
     37.71298285     39.59863199     41.57856359     43.65749177     45.84036636     48.13238467     50.53900391     53.06595410     55.71925181     58.50521440     61.43047512     64.50199887     67.72709882     71.11345376     74.66912645     78.40258277     82.32271191     86.43884750     90.76078988     95.29882937
    100.06377084    105.06695938    110.32030735    115.83632272    121.62813886    127.70954580    134.09502309    140.79977424    147.83976295    155.23175110    162.99333866    171.14300559    179.70015587    188.68516366    198.11942185    208.02539294    218.42666259    229.34799572    240.81539550    252.85616528
    265.49897354    278.77392222    292.71261833    307.34824924    322.71566171    338.85144479    355.79401703    373.58371788    392.26290378    411.87604897    432.46985141    454.09334398    476.79801118    500.63791174    525.66980733    551.95329770    579.55096258    608.52851071    638.95493625    670.90268306
    704.44781721    739.67020807    776.65371848    815.48640440    856.26072462    899.07376085    944.02744889    991.22882134   1040.79026240   1092.82977552   1147.47126430   1204.84482752   1265.08706889   1328.34142234   1394.75849345   1464.49641812   1537.72123903   1614.60730098   1695.33766603   1780.10454933
   1869.10977680   1962.56526564   2060.69352892   2163.72820537   2271.91461564   2385.51034642   2504.78586374    108.00000000    106.00000000    105.00000000    104.00000000    103.00000000    101.00000000     99.70000000     98.90000000     97.10000000     95.20000000     94.30000000     92.30000000     90.20000000
     88.00000000     85.70000000     83.30000000     80.80000000     78.20000000     75.60000000     71.40000000     68.60000000     65.80000000     61.40000000     58.40000000     55.50000000     51.10000000     46.70000000     43.90000000     39.70000000     35.70000000     31.80000000     28.20000000     24.80000000
     21.60000000     18.70000000     16.00000000     12.90000000     10.80000000      8.43000000      6.91000000      5.20000000      3.83000000      2.76000000      1.93000000      1.31000000      0.86300000      0.55000000      0.29800000      0.17800000      0.09510000      0.05780000      0.04620000      0.04220000
      0.04190000      0.04030000      0.03650000      0.03090000      0.02310000      0.01590000      0.01040000      0.00687000      0.00509000      0.00445000      0.00433000      0.00424000      0.00386000      0.00318000      0.00239000      0.00160000      0.00116000      0.00093300      0.00088100      0.00086200
      0.00078800      0.00063100      0.00047400      0.00033900      0.00027300      0.00025600      0.00024700      0.00021700      0.00016900      0.00012500      0.00009920      0.00009310      0.00008840      0.00007520      0.00005640      0.00004390      0.00004010      0.00003790      0.00003250      0.00002440
      0.00002020      0.00001890      0.00001710      0.00001340      0.00001090      0.00001000      0.00000911      0.00000000     75.58903954     15.11780791      1.35484488      1.08941040      1.40708231      0.00000000      0.00000000      0.00000000      0.00000000      0.00000000      0.00000000      0.00000000
      0.00000000      0.00000000      0.00000000      0.00000000      0.00000000      0.00000000      0.00000000      0.00000000      0.00000000      0.00000000      0.00000000      0.00000000      0.00000000      0.00000000      0.00000000      0.00000000      0.00000000      0.00000000      0.00000000      0.00000000
      0.00000000      0.00000000      0.00000000      0.00000000      0.00000000      0.00000000      0.00000000      0.00000000      0.00000000      0.00000000      0.00000000      0.00000000      0.00000000      0.00000000      0.00000000      0.00000000      0.00000000      0.00000000      0.00000000      0.00000000
      0.00000000      0.00000000      0.00000000      0.00000000      0.00000000      0.00000000      0.00000000      0.00000000      0.00000000      0.00000000      0.00000000      0.00000000      0.00000000      0.00000000      0.00000000      0.00000000      0.00000000      0.00000000      0.00000000      0.00000000
      0.00000000      0.00000000      0.00000000      0.00000000      0.00000000      0.00000000      0.00000000      0.00000000      0.00000000      0.00000000      0.00000000      0.00000000      0.00000000      0.00000000      0.00000000      0.00000000      0.00000000      0.00000000      0.00000000      0.00000000
      0.00000000      0.00000000      0.00000000      0.00000000      0.00000000      0.00000000      0.00000000      0.00000000      0.00000000      0.00000000      0.00000000      0.00000000      0.00000000      0.00000000      0.00000000      0.00000000      0.00000000      0.00000000      0.00000000      0.00000000
      0.00000000      0.00000000      0.00000000      0.00000000      0.00000000      0.00000000      0.00000000      0.00000000      0.00000000      0.00000000      0.00000000      0.00000000      0.00000000      0.00000000      0.00000000      0.00000000      0.00000000      0.00000000      0.00000000      0.00000000
      0.00000000      0.00000000      0.00000000      0.00000000      0.00000000      0.00000000      0.00000000      0.00000000      0.00000000      0.00000000      0.00000000      0.00000000      0.00000000      0.00000000      0.00000000      0.00000000      0.00000000      0.00000000      0.00000000      0.00000000
      0.00000000      0.00000000      0.00000000      0.00000000      0.00000000      0.00000000      0.00000000      0.00000000      0.00000000      0.00000000      0.00000000      0.00000000      0.00000000      0.00000000      0.00000000      0.00000000      0.00000000      0.00000000      0.00000000      0.00000000
      0.00000000      0.00000000      0.00000000      0.00000000      0.00000000      0.00000000      0.00000000      0.00000000      0.00000000      0.00000000      0.00000000      0.00000000      0.00000000      0.00000000      0.00000000      0.00000000      0.00000000      0.00000000      0.00000000      0.00000000
      0.00000000      0.00000000      0.00000000      0.00000000      0.00000000      0.00000000      0.00000000      0.00000000      0.00000000      0.00000000      0.00000000      0.00000000      0.00000000      0.00000000      0.00000000      0.00000000      0.00000000      0.00000000      0.00000000      0.00000000
      0.00000000      0.00000000      0.00000000      0.00000000      0.00000000      0.00000000      0.00000000      0.00000000      0.00000000      0.00000000      0.00000000      0.00000000      0.00000000      0.00000000      0.00000000      0.00000000      0.00000000      0.00000000      0.00000000      0.00000000
      0.00000000      0.00000000      0.00000000      0.00000000      0.00000000      0.00000000      0.00000000      0.00000000      0.00000000      0.00000000      0.00000000      0.00000000      0.00000000      0.00000000      0.00000000      0.00000000      0.00000000      0.00000000      0.00000000      0.00000000
      0.00000000      0.00000000      0.00000000      0.00000000      0.00000000      0.00000000      0.00000000      0.00000000      0.00000000      0.00000000      0.00000000      0.00000000      0.00000000      0.00000000      0.00000000      0.00000000      0.00000000      0.00000000      0.00000000      0.00000000
      0.00000000      0.00000000      0.00000000      0.00000000      0.00000000      0.00000000      0.00000000     79.99039300      0.00000000      0.00000000      0.00000000      0.00000000      0.00000000      0.00000000      0.00000000      0.00000000      0.00000000      0.00000000      0.00000000      0.00000000
      0.00000000      0.00000000      0.00000000      0.00000000      0.00000000      0.00000000      0.00000000      0.00000000      0.00000000      0.00000000      0.00000000      0.00000000      0.00000000      0.00000000      0.00000000      0.00000000      0.00000000      0.00000000      0.00000000      0.00000000
      0.00000000      0.00000000      0.00000000      0.00000000      0.00000000      0.00000000      0.00000000      0.00000000      0.00000000      0.00000000      0.00000000      0.00000000      0.00000000      0.00000000      0.00000000      0.00000000      0.00000000      0.00005712      4.74758767      1.08941040
      1.03251751      0.03200000      0.00000000      0.00000000      0.00000000      0.00000000      0.00000000      0.00000000      0.00000000      0.00000000      0.00000000      0.00000000      0.00000000      0.00000000      0.00000000      0.00000000      0.00000000      0.00000000      0.00000000      0.00000000
      0.00000000      0.00000000      0.00000000      0.00000000      0.00000000      0.00000000      0.00000000      0.00000000      0.00000000      0.00000000      0.00000000      0.00000000      0.00000000      0.00000000      0.00000000      0.00000000      0.00000000      0.00000000      0.00000000      0.00000000
      0.00000000      0.00000000      0.00000000      0.00000000      0.00000000      0.00000000      0.00000000      0.00000000      0.00000000      0.00000000      0.00000000      0.00000000      0.00000000      0.00000000      0.00000000      0.00000000      0.00000000      0.00000000      0.00000000      0.00000000
      0.00000000      0.00000000      0.00000000      0.00000000      0.00000000      0.00000000      0.00000000      0.00000000      0.00000000      0.00000000      0.00000000      0.00000000      0.00000000      0.00000000      0.00000000      0.00000000      0.00000000      0.00000000      0.00000000      0.00000000
      0.00000000      0.00000000      0.00000000      0.00000000      0.00000000      0.00000000      0.00000000      0.00000000      0.00000000      0.00000000      0.00000000      0.00000000      0.00000000      0.00000000      0.00000000      0.00000000      0.00000000      0.00000000      0.00000000      0.00000000
      0.00000000      0.00000000      0.00000000      0.00000000      0.00000000      0.00000000      0.00000000      0.00000000      0.00000000      0.00000000      0.00000000      0.00000000      0.00000000      0.00000000      0.00000000      0.00000000      0.00000000      0.00000000      0.00000000      0.00000000
      0.00000000      0.00000000      0.00000000      0.00000000      0.00000000      0.00000000      0.00000000      0.00000000      0.00000000      0.00000000      0.00000000      0.00000000      0.00000000      0.00000000      0.00000000      0.00000000      0.00000000      0.00000000      0.00000000      0.00000000
      0.00000000      0.00000000      0.00000000      0.00000000      0.00000000      0.00000000      0.00000000      0.00000000      0.00000000      0.00000000      0.00000000      0.00000000      0.00000000      0.00000000      0.00000000      0.00000000      0.00000000      0.00000000      0.00000000      0.00000000
      0.00000000      0.00000000      0.00000000      0.00000000      0.00000000      0.00000000      0.00000000      0.00000000      0.00000000      0.00000000      0.00000000      0.00000000      0.00000000      0.00000000      0.00000000      0.00000000      0.00000000      0.00000000      0.00000000      0.00000000
      0.00000000      0.00000000      0.00000000      0.00000000      0.00000000      0.00000000      0.00000000      0.00000000      0.00000000      0.00000000      0.00000000      0.00000000      0.00000000      0.00000000      0.00000000      0.00000000      0.00000000      0.00000000      0.00000000      0.00000000
      0.00000000      0.00000000      0.00000000      0.00000000      0.00000000      0.00000000      0.00000000      0.00000000      0.00000000      0.00000000      0.00000000      0.00000000      0.00000000      0.00000000      0.00000000      0.00000000      0.00000000      0.00000000      0.00000000      0.00000000
      0.00000000      0.00000000      0.00000000      0.00000000      0.00000000      0.00000000      0.00000000      0.00000000      0.00000000      0.00000000      0.00000000      0.00000000      0.00000000      0.00000000      0.00000000      0.00000000      0.00000000      0.00000000      0.00000000      0.00000000
      0.00000000      0.00000000      0.00000000      0.00000000      0.00000000      0.00000000      0.00000000      0.00000000      0.00000000      0.00000000      0.00000000      0.00000000      0.00000000      0.00000000      0.00000000      0.00000000      0.00000000      0.00000000      0.00000000      0.00000000
      0.00000000      0.00000000      0.00000000      0.00000000      0.00000000      0.00000000      0.00000000      0.00000000      0.00000000      0.00000000      0.00000000      0.00000000      0.00000000      0.00000000      0.00000000      0.00000000      0.00000000      0.00000000      0.00000000      0.00000000
      0.00000000      0.00000000      0.00000000      0.00000000      0.00000000      0.00000000      0.00000000      0.00000000      0.00000000      0.00000000      0.00000000      0.00000000      0.00000000      0.00000000      0.00000000      0.00000000      0.00000000      0.00000000      0.00000000      0.00000000
      0.00000000      0.00000000      0.00000000      0.00000000      0.00000000      0.00000000      0.00000000      0.00000000      1.00000000      0.00000000      0.00000000      0.00000000      0.00000000      0.00000000      0.00000000      0.00000000      0.00000000      0.00000000      0.00000000      0.00000000
      0.00000000      0.00000000      0.00000000      0.00000000      0.00000000      0.00000000      0.00000000      0.00000000      0.00000000      0.00000000      0.00000000      0.00000000      0.00000000      0.00000000      0.00000000      0.00000000      0.00000000      0.00000000      0.00000000      0.00000000
      0.00000000      0.00000000      0.00000000      0.00000000      0.00000000      0.00000000      0.00000000      0.00000000      0.00000000      0.00000000      0.00000000      0.00000000      0.00000000      0.00000000      0.00000000      0.00000000      0.00000000      0.00000000      0.00000000****************
      0.00000000      0.00000000      0.00000000      0.00000000      0.00000000      6.00000000    127.60000000      1.53500000      6.00000000    223.27210000      0.00000000      0.00000000      0.00000000      0.00000000      0.00000000    174.98200000    131.23600000    368.79200000      0.00000000      0.00000000
     20.00000000     21.00000000     22.05000000     23.15250000     24.31012500     25.52563125     26.80191281     28.14200845     29.54910888     31.02656432     32.57789254     34.20678716     35.91712652     37.71298285     39.59863199     41.57856359     43.65749177     45.84036636     48.13238467     50.53900391
     53.06595410     55.71925181     58.50521440     61.43047512     64.50199887     67.72709882     71.11345376     74.66912645     78.40258277     82.32271191     86.43884750     90.76078988     95.29882937    100.06377084    105.06695938    110.32030735    115.83632272    121.62813886    127.70954580    134.09502309
    140.79977424    147.83976295    155.23175110    162.99333866    171.14300559    179.70015587    188.68516366    198.11942185    208.02539294    218.42666259    229.34799572    240.81539550    252.85616528    265.49897354    278.77392222    292.71261833    307.34824924    322.71566171    338.85144479    355.79401703
    373.58371788    392.26290378    411.87604897    432.46985141    454.09334398    476.79801118    500.63791174    525.66980733    551.95329770    579.55096258    608.52851071    638.95493625    670.90268306    704.44781721    739.67020807    776.65371848    815.48640440    856.26072462    899.07376085    944.02744889
    991.22882134   1040.79026240   1092.82977552   1147.47126430   1204.84482752   1265.08706889   1328.34142234   1394.75849345   1464.49641812   1537.72123903   1614.60730098   1695.33766603   1780.10454933   1869.10977680   1962.56526564   2060.69352892   2163.72820537   2271.91461564   2385.51034642   2504.78586374
     26.70000000     24.10000000     22.80000000     20.40000000     19.30000000     17.20000000     15.30000000     14.40000000     12.70000000     11.20000000     10.50000000      9.15000000      7.98000000      6.94000000      6.02000000      5.20000000      4.49000000      3.86000000      3.32000000      2.63000000
      2.25000000      1.92000000      1.51000000      1.28000000      1.09000000      0.85600000      0.67200000      0.57200000      0.45100000      0.35600000      0.28300000      0.22600000      0.18200000      0.14800000      0.12100000      0.09960000      0.07780000      0.06520000      0.05190000      0.04400000
      0.03540000      0.02850000      0.02300000      0.01840000      0.01480000      0.01180000      0.00939000      0.00712000      0.00577000      0.00458000      0.00381000      0.00342000      0.00313000      0.00296000      0.00281000      0.00269000      0.00253000      0.00229000      0.00200000      0.00170000
      0.00143000      0.00119000      0.00101000      0.00087400      0.00080200      0.00074800      0.00070300      0.00065100      0.00057500      0.00050100      0.00041800      0.00035200      0.00030600      0.00027900      0.00025800      0.00024100      0.00021600      0.00018700      0.00015600      0.00013500
      0.00012000      0.00011100      0.00010300      0.00009090      0.00007740      0.00006590      0.00005830      0.00005350      0.00004910      0.00004330      0.00003650      0.00003190      0.00002880      0.00002660      0.00002340      0.00001990      0.00001730      0.00001600      0.00001440      0.00001250
      0.00000000     81.25821751     16.25164350      1.24080361      1.18970920      1.26843787      0.00000000      0.00000000      0.00000000      0.00000000      0.00000000      0.00000000      0.00000000      0.00000000      0.00000000      0.00000000      0.00000000      0.00000000      0.00000000      0.00000000
      0.00000000      0.00000000      0.00000000      0.00000000      0.00000000      0.00000000      0.00000000      0.00000000      0.00000000      0.00000000      0.00000000      0.00000000      0.00000000      0.00000000      0.00000000      0.00000000      0.00000000      0.00000000      0.00000000      0.00000000
      0.00000000      0.00000000      0.00000000      0.00000000      0.00000000      0.00000000      0.00000000      0.00000000      0.00000000      0.00000000      0.00000000      0.00000000      0.00000000      0.00000000      0.00000000      0.00000000      0.00000000      0.00000000      0.00000000      0.00000000
      0.00000000      0.00000000      0.00000000      0.00000000      0.00000000      0.00000000      0.00000000      0.00000000      0.00000000      0.00000000      0.00000000      0.00000000      0.00000000      0.00000000      0.00000000      0.00000000      0.00000000      0.00000000      0.00000000      0.00000000
      0.00000000      0.00000000      0.00000000      0.00000000      0.00000000      0.00000000      0.00000000      0.00000000      0.00000000      0.00000000      0.00000000      0.00000000      0.00000000      0.00000000      0.00000000      0.00000000      0.00000000      0.00000000      0.00000000      0.00000000
      0.00000000      0.00000000      0.00000000      0.00000000      0.00000000      0.00000000      0.00000000      0.00000000      0.00000000      0.00000000      0.00000000      0.00000000      0.00000000      0.00000000      0.00000000      0.00000000      0.00000000      0.00000000      0.00000000      0.00000000
      0.00000000      0.00000000      0.00000000      0.00000000      0.00000000      0.00000000      0.00000000      0.00000000      0.00000000      0.00000000      0.00000000      0.00000000      0.00000000      0.00000000      0.00000000      0.00000000      0.00000000      0.00000000      0.00000000      0.00000000
      0.00000000      0.00000000      0.00000000      0.00000000      0.00000000      0.00000000      0.00000000      0.00000000      0.00000000      0.00000000      0.00000000      0.00000000      0.00000000      0.00000000      0.00000000      0.00000000      0.00000000      0.00000000      0.00000000      0.00000000
      0.00000000      0.00000000      0.00000000      0.00000000      0.00000000      0.00000000      0.00000000      0.00000000      0.00000000      0.00000000      0.00000000      0.00000000      0.00000000      0.00000000      0.00000000      0.00000000      0.00000000      0.00000000      0.00000000      0.00000000
      0.00000000      0.00000000      0.00000000      0.00000000      0.00000000      0.00000000      0.00000000      0.00000000      0.00000000      0.00000000      0.00000000      0.00000000      0.00000000      0.00000000      0.00000000      0.00000000      0.00000000      0.00000000      0.00000000      0.00000000
      0.00000000      0.00000000      0.00000000      0.00000000      0.00000000      0.00000000      0.00000000      0.00000000      0.00000000      0.00000000      0.00000000      0.00000000      0.00000000      0.00000000      0.00000000      0.00000000      0.00000000      0.00000000      0.00000000      0.00000000
      0.00000000      0.00000000      0.00000000      0.00000000      0.00000000      0.00000000      0.00000000      0.00000000      0.00000000      0.00000000      0.00000000      0.00000000      0.00000000      0.00000000      0.00000000      0.00000000      0.00000000      0.00000000      0.00000000      0.00000000
      0.00000000      0.00000000      0.00000000      0.00000000      0.00000000      0.00000000      0.00000000      0.00000000      0.00000000      0.00000000      0.00000000      0.00000000      0.00000000      0.00000000      0.00000000      0.00000000      0.00000000      0.00000000      0.00000000      0.00000000
      0.00000000      0.00000000      0.00000000      0.00000000      0.00000000      0.00000000      0.00000000      0.00000000      0.00000000      0.00000000      0.00000000      0.00000000      0.00000000      0.00000000      0.00000000      0.00000000      0.00000000      0.00000000      0.00000000      0.00000000
      4.32875240      0.00000000      0.00000000      0.00000000      0.00000000      0.00000000      0.00000000      0.00000000      0.00000000      0.00000000      0.00000000      0.00000000      0.00000000      0.00000000      0.00000000      0.00000000      0.00000000      0.00000000      0.00000000      0.00000000
      0.00000000      0.00000000      0.00000000      0.00000000      0.00000000      0.00000000      0.00000000      0.00000000      0.00000000      0.00000000      0.00000000      0.00000000      0.00000000      0.00000000      0.00000000      0.00000000      0.00000000      0.00000000      0.00000000      0.00000000
      0.00000000      0.00000000      0.00000000      0.00000000      0.00000000      0.00000000      0.00000000      0.00000000      0.00000000      0.00000000      0.00005851      6.28212881      1.18970920      1.03251751      0.03200000      0.00000000      0.00000000      0.00000000      0.00000000      0.00000000
      0.00000000      0.00000000      0.00000000      0.00000000      0.00000000      0.00000000      0.00000000      0.00000000      0.00000000      0.00000000      0.00000000      0.00000000      0.00000000      0.00000000      0.00000000      0.00000000      0.00000000      0.00000000      0.00000000      0.00000000
      0.00000000      0.00000000      0.00000000      0.00000000      0.00000000      0.00000000      0.00000000      0.00000000      0.00000000      0.00000000      0.00000000      0.00000000      0.00000000      0.00000000      0.00000000      0.00000000      0.00000000      0.00000000      0.00000000      0.00000000
      0.00000000      0.00000000      0.00000000      0.00000000      0.00000000      0.00000000      0.00000000      0.00000000      0.00000000      0.00000000      0.00000000      0.00000000      0.00000000      0.00000000      0.00000000      0.00000000      0.00000000      0.00000000      0.00000000      0.00000000
      0.00000000      0.00000000      0.00000000      0.00000000      0.00000000      0.00000000      0.00000000      0.00000000      0.00000000      0.00000000      0.00000000      0.00000000      0.00000000      0.00000000      0.00000000      0.00000000      0.00000000      0.00000000      0.00000000      0.00000000
      0.00000000      0.00000000      0.00000000      0.00000000      0.00000000      0.00000000      0.00000000      0.00000000      0.00000000      0.00000000      0.00000000      0.00000000      0.00000000      0.00000000      0.00000000      0.00000000      0.00000000      0.00000000      0.00000000      0.00000000
      0.00000000      0.00000000      0.00000000      0.00000000      0.00000000      0.00000000      0.00000000      0.00000000      0.00000000      0.00000000      0.00000000      0.00000000      0.00000000      0.00000000      0.00000000      0.00000000      0.00000000      0.00000000      0.00000000      0.00000000
      0.00000000      0.00000000      0.00000000      0.00000000      0.00000000      0.00000000      0.00000000      0.00000000      0.00000000      0.00000000      0.00000000      0.00000000      0.00000000      0.00000000      0.00000000      0.00000000      0.00000000      0.00000000      0.00000000      0.00000000
      0.00000000      0.00000000      0.00000000      0.00000000      0.00000000      0.00000000      0.00000000      0.00000000      0.00000000      0.00000000      0.00000000      0.00000000      0.00000000      0.00000000      0.00000000      0.00000000      0.00000000      0.00000000      0.00000000      0.00000000
      0.00000000      0.00000000      0.00000000      0.00000000      0.00000000      0.00000000      0.00000000      0.00000000      0.00000000      0.00000000      0.00000000      0.00000000      0.00000000      0.00000000      0.00000000      0.00000000      0.00000000      0.00000000      0.00000000      0.00000000
      0.00000000      0.00000000      0.00000000      0.00000000      0.00000000      0.00000000      0.00000000      0.00000000      0.00000000      0.00000000      0.00000000      0.00000000      0.00000000      0.00000000      0.00000000      0.00000000      0.00000000      0.00000000      0.00000000      0.00000000
      0.00000000      0.00000000      0.00000000      0.00000000      0.00000000      0.00000000      0.00000000      0.00000000      0.00000000      0.00000000      0.00000000      0.00000000      0.00000000      0.00000000      0.00000000      0.00000000      0.00000000      0.00000000      0.00000000      0.00000000
      0.00000000      0.00000000      0.00000000      0.00000000      0.00000000      0.00000000      0.00000000      0.00000000      0.00000000      0.00000000      0.00000000      0.00000000      0.00000000      0.00000000      0.00000000      0.00000000      0.00000000      0.00000000      0.00000000      0.00000000
      0.00000000      0.00000000      0.00000000      0.00000000      0.00000000      0.00000000      0.00000000      0.00000000      0.00000000      0.00000000      0.00000000      0.00000000      0.00000000      0.00000000      0.00000000      0.00000000      0.00000000      0.00000000      0.00000000      0.00000000
      0.00000000      0.00000000      0.00000000      0.00000000      0.00000000      0.00000000      0.00000000      0.00000000      0.00000000      0.00000000      0.00000000      0.00000000      0.00000000      0.00000000      0.00000000      0.00000000      0.00000000      0.00000000      0.00000000      0.00000000
      0.00000000      0.00000000      0.00000000      0.00000000      0.00000000      0.00000000      0.00000000      0.00000000      0.00000000      0.00000000      0.00000000      0.00000000      0.00000000      0.00000000      0.00000000      0.00000000      0.00000000      0.00000000      0.00000000      0.00000000
      0.00000000      1.00000000      0.00000000      0.00000000      0.00000000      0.00000000      0.00000000      0.00000000      0.00000000      0.00000000      0.00000000      0.00000000      0.00000000      0.00000000      0.00000000      0.00000000      0.00000000      0.00000000      0.00000000      0.00000000
      0.00000000      0.00000000      0.00000000      0.00000000      0.00000000      0.00000000      0.00000000      0.00000000      0.00000000      0.00000000      0.00000000      0.00000000      0.00000000      0.00000000      0.00000000      0.00000000      0.00000000      0.00000000      0.00000000      0.00000000
      0.00000000      0.00000000      0.00000000      0.00000000      0.00000000      0.00000000      0.00000000      0.00000000      0.00000000      0.00000000      0.00000000      0.00000000****************1585184.39581491      0.00000000      0.00000000      0.00000000      0.00000000      0.00000000      0.00000000
      0.00000000      0.00000000      0.00000000      0.00000000      0.00000000      0.00000000      0.00000000      0.00000000      0.00000000      0.00000000      0.00000000      0.00000000      0.00000000      0.00000000      0.00000000      0.00000000      0.00000000      0.00000000      0.00000000      0.00000000
      0.00000000      0.00000000      0.00000000      0.00000000      0.00000000      0.00000000      0.00000000      0.00000000      0.00000000      0.00000000      0.00000000      0.00000000      0.00000000      0.00000000      0.00000000      0.00000000      0.00000000      0.00000000      0.00000000      0.00000000
      0.00000000      0.00000000      0.00000000      0.00000000      0.00000000      0.00000000      0.00000000      0.00000000      0.00000000      0.00000000      0.00000000      0.00000000      0.00000000      0.00000000      0.00000000      0.00000000      0.00000000      0.00000000      0.00000000      0.00000000
      0.00000000      0.00000000      0.00000000      0.00000000      0.00000000      0.00000000      0.00000000      0.00000000      0.00000000      0.00000000      0.00000000      0.00000000      0.00000000      0.00000000      0.00000000      0.00000000      0.00000000      0.00000000      0.00000000      0.00000000
      0.00000000      0.00000000      0.00000000      0.00000000      0.00000000      0.00000000      0.00000000      0.00000000      0.00000000      0.00000000      0.00000000      0.00000000      0.00000000      0.00000000      0.00000000      0.00000000      0.00000000      0.00000000      0.00000000      0.00000000
      0.00000000      0.00000000      0.00000000      0.00000000      0.00000000      0.00000000      0.00000000      0.00000000      0.00000000      0.00000000      0.00000000      0.00000000      0.00000000      0.00000000      0.00000000      0.00000000      0.00000000      0.00000000      0.00000000      0.00000000
      0.00000000****************************************************************      0.00000000********************************      0.00000000      0.00000000      0.00000000      0.00000000      0.00000000      0.00000000      0.00000000      0.00000000      0.00000000      0.00000000      0.00000000      0.00000000
      0.00000000      0.00000000      0.00000000      0.00000000      0.00000000      0.00000000      0.00000000      0.00000000      0.00000000      0.00000000      0.00000000      0.00000000      0.00000000      0.00000000      0.00000000      0.00000000      0.00000000      0.00000000      0.00000000      0.00000000
      0.00000000****************************************************************      0.00000000********************************      0.00000000      0.00000000      0.00000000      0.00000000      0.00000000      0.00000000      0.00000000      0.00000000      0.00000000      0.00000000      0.00000000      0.00000000
      0.00000000      0.00000000      0.00000000      0.00000000      0.00000000      0.00000000      0.00000000      0.00000000      0.00000000      0.00000000      0.00000000      0.00000000      0.00000000      0.00000000      0.00000000      0.00000000      0.00000000      0.00000000      0.00000000      0.00000000
      0.00000000      0.00000000      0.00000000      0.00000000      0.00000000      0.00000000      0.00000000      0.00000000      0.00000000      0.00000000      0.00000000      0.00000000      0.00000000      0.00000000      0.00000000      0.00000000      0.00000000      0.00000000      0.00000000      0.00000000
      0.00000000      0.00000000      0.00000000      0.00000000      0.00000000****************      0.00000000      0.00000000****************      0.00000000      0.00000000****************      0.00000000      0.00000000****************************************************************      0.000000003836436.37647059
      0.00000000****************      0.00000000****************      0.000000003806410.90174499      0.00000000      0.00000000      0.00000000****************      0.00000000****************      0.00000000      0.00000000      0.00000000      0.00000000      0.00000000      0.00000000      0.00000000      0.00000000
      0.00000000      0.00000000      0.00000000****************      0.00000000      0.00000000      0.00000000      0.00000000****************      0.00000000      0.00000000      0.00000000      0.00000000****************      0.00000000      0.00000000      0.00000000      0.00000000      0.00000000      0.00000000
      0.00000000      0.00000000      0.00000000      0.00000000      0.00000000      0.00000000      0.00000000      0.00000000      0.00000000      0.00000000      0.00000000      0.00000000      0.00000000      0.00000000      0.00000000      0.00000000      0.00000000      0.00000000      0.00000000      0.00000000
      0.00000000      0.00000000      0.00000000      0.00000000      0.00000000      0.00000000      0.00000000      0.00000000      0.00000000      0.00000000      0.00000000      0.00000000      0.00000000      0.00000000      0.00000000      0.00000000****************      0.00000000      0.00000000      0.00000000
      0.00000000****************      0.00000000      0.00000000      0.00000000      0.00000000      0.00000000      0.00000000      0.00000000      0.00000000      0.00000000      0.00000000      0.00000000      0.00000000      0.00000000      0.00000000      0.00000000      0.00000000      0.00000000      0.00000000
      0.00000000      0.00000000      0.00000000      0.00000000      0.00000000      0.00000000      0.00000000      0.00000000      0.00000000      0.00000000      0.00000000      0.00000000      0.00000000      0.00000000      0.00000000      0.00000000      0.00000000      0.00000000      0.00000000      0.00000000
      0.00000000      0.00000000      0.00000000      0.00000000****************      0.00000000      0.00000000      0.00000000      0.00000000****************      0.00000000      0.00000000      0.00000000      0.00000000****************      0.00000000      0.00000000      0.00000000      0.00000000      0.00000000
      0.00000000      0.00000000      0.00000000      0.00000000      0.00000000      0.00000000      0.00000000      0.00000000      0.00000000      0.00000000      0.00000000      0.00000000      0.00000000      0.00000000      0.00000000      0.00000000      0.00000000      0.00000000      0.00000000      0.00000000
      0.00000000      0.00000000      0.00000000      0.00000000      0.00000000      0.00000000      0.00000000      0.00000000      0.00000000      0.00000000      0.00000000      0.00000000      0.00000000      0.00000000      0.00000000      0.00000000      0.00000000****************      0.00000000      0.00000000
      0.00000000      0.00000000****************      0.00000000      0.00000000      0.00000000      0.00000000      0.00000000      0.00000000      0.00000000      0.00000000      0.00000000      0.00000000      0.00000000      0.00000000      0.00000000      0.00000000      0.00000000      0.00000000      0.00000000
      0.00000000      0.00000000      0.00000000      0.00000000      0.00000000      0.00000000      0.00000000      0.00000000      0.00000000      0.00000000      0.00000000      0.00000000      0.00000000      0.00000000      0.00000000      0.00000000      0.00000000      0.00000000      0.00000000      0.00000000
      0.00000000      0.00000000      0.00000000      0.00000000      0.00000000****************      0.00000000      0.00000000      0.00000000      0.00000000****************      0.00000000      0.00000000      0.00000000      0.00000000****************      0.00000000      0.00000000      0.00000000      0.00000000
      0.00000000      0.00000000      0.00000000      0.00000000      0.00000000      0.00000000      0.00000000      0.00000000      0.00000000      0.00000000      0.00000000      0.00000000      0.00000000      0.00000000      0.00000000      0.00000000      0.00000000      0.00000000      0.00000000      0.00000000
      0.00000000      0.00000000      0.00000000      0.00000000      0.00000000      0.00000000      0.00000000      0.00000000      0.00000000      0.00000000      0.00000000      0.00000000      0.00000000      0.00000000      0.00000000      0.00000000      0.00000000      0.00000000****************      0.00000000
      0.00000000      0.00000000      0.00000000****************      0.00000000      0.00000000      0.00000000      0.00000000      0.00000000      0.00000000      0.00000000      0.00000000      0.00000000      0.00000000      0.00000000      0.00000000      0.00000000      0.00000000      0.00000000      0.00000000
      0.00000000      0.00000000      0.00000000      0.00000000      0.00000000      0.00000000      0.00000000      0.00000000      0.00000000      0.00000000      0.00000000      0.00000000      0.00000000      0.00000000      0.00000000      0.00000000      0.00000000      0.00000000      0.00000000      0.00000000
      0.00000000      0.00000000      0.00000000      0.00000000      0.00000000      0.00000000****************      0.00000000      0.00000000      0.00000000      0.00000000****************      0.00000000      0.00000000      0.00000000      0.00000000****************      0.00000000      0.00000000      0.00000000
      0.00000000      0.00000000      0.00000000      0.00000000      0.00000000      0.00000000      0.00000000      0.00000000      0.00000000      0.00000000      0.00000000      0.00000000      0.00000000      0.00000000      0.00000000      0.00000000      0.00000000      0.00000000      0.00000000      0.00000000
      0.00000000      0.00000000      0.00000000      0.00000000      0.00000000      0.00000000      0.00000000      0.00000000      0.00000000      0.00000000      0.00000000      0.00000000      0.00000000      0.00000000      0.00000000      0.00000000      0.00000000      0.00000000      0.00000000****************
      0.00000000      0.00000000      0.00000000      0.00000000****************      0.00000000      0.00000000      0.00000000      0.00000000      0.00000000      0.00000000      0.00000000      0.00000000      0.00000000      0.00000000      0.00000000      0.00000000      0.00000000      0.00000000      0.00000000
      0.00000000      0.00000000      0.00000000      0.00000000      0.00000000      0.00000000      0.00000000      0.00000000      0.00000000      0.00000000      0.00000000      0.00000000      0.00000000      0.00000000      0.00000000      0.00000000      0.00000000      0.00000000      0.00000000      0.00000000
      0.00000000      0.00000000      0.00000000      0.00000000      0.00000000      0.00000000      0.00000000****************      0.00000000      0.00000000      0.00000000      0.00000000****************      0.00000000      0.00000000      0.00000000      0.00000000****************      0.00000000      0.00000000
      0.00000000      0.00000000      0.00000000      0.00000000      0.00000000      0.00000000      0.00000000      0.00000000      0.00000000      0.00000000      0.00000000      0.00000000      0.00000000      0.00000000      0.00000000      0.00000000      0.00000000      0.00000000      0.00000000      0.00000000
      0.00000000      0.00000000      0.00000000      0.00000000      0.00000000      0.00000000      0.00000000      0.00000000      0.00000000      0.00000000      0.00000000      0.00000000      0.00000000      0.00000000      0.00000000      0.00000000      0.00000000      0.00000000      0.00000000      0.00000000
****************      0.00000000      0.00000000      0.00000000      0.00000000****************      0.00000000      0.00000000      0.00000000      0.00000000      0.00000000      0.00000000      0.00000000      0.00000000      0.00000000      0.00000000********************************      0.00000000      0.00000000
      0.00000000      0.00000000      0.00000000      0.00000000      0.00000000      0.00000000      0.00000000      0.00000000      0.00000000      0.00000000      0.00000000      0.00000000      0.00000000      0.00000000      0.00000000      0.00000000      0.00000000      0.00000000      0.00000000      0.00000000
      0.00000000      0.00000000      0.00000000      0.00000000      0.00000000      0.00000000      0.00000000      0.00000000****************      0.00000000      0.00000000      0.00000000      0.00000000****************      0.00000000      0.00000000      0.00000000      0.00000000****************      0.00000000
      0.00000000      0.00000000      0.00000000      0.00000000      0.00000000      0.00000000      0.00000000      0.00000000      0.00000000      0.00000000      0.00000000      0.00000000      0.00000000      0.00000000      0.00000000      0.00000000      0.00000000      0.00000000      0.00000000      0.00000000
      0.00000000      0.00000000      0.00000000      0.00000000      0.00000000      0.00000000      0.00000000      0.00000000      0.00000000      0.00000000      0.00000000      0.00000000      0.00000000      0.00000000      0.00000000      0.00000000      0.00000000      0.00000000      0.00000000      0.00000000
      0.00000000****************      0.00000000      0.00000000      0.00000000      0.00000000****************      0.00000000      0.00000000      0.00000000      0.00000000      0.00000000      0.00000000      0.00000000      0.00000000      0.00000000      0.00000000********************************      0.00000000
      0.00000000      0.00000000      0.00000000      0.00000000      0.00000000      0.00000000      0.00000000      0.00000000      0.00000000      0.00000000      0.00000000      0.00000000      0.00000000      0.00000000      0.00000000      0.00000000****************      0.00000000      0.00000000      0.00000000
      0.00000000****************      0.00000000      0.00000000      0.00000000      0.00000000      0.00000000      0.00000000      0.00000000      0.00000000      0.00000000      0.00000000      0.00000000      0.00000000      0.00000000      0.00000000      0.00000000      0.00000000      0.00000000      0.00000000
      0.00000000      0.00000000      0.00000000      0.00000000      0.00000000      0.00000000      0.00000000      0.00000000      0.00000000      0.00000000      0.00000000      0.00000000      0.00000000      0.00000000      0.00000000      0.00000000      0.00000000      0.00000000      0.00000000      0.00000000
      0.00000000      0.00000000      0.00000000      0.00000000****************      0.00000000      0.00000000      0.00000000      0.00000000****************      0.00000000      0.00000000      0.00000000      0.00000000****************      0.00000000      0.00000000      0.00000000      0.00000000      0.00000000
      0.00000000      0.00000000      0.00000000      0.00000000      0.00000000      0.00000000      0.00000000      0.00000000      0.00000000      0.00000000      0.00000000      0.00000000      0.00000000      0.00000000      0.00000000      0.00000000      0.00000000      0.00000000      0.00000000      0.00000000
      0.00000000      0.00000000      0.00000000      0.00000000      0.00000000      0.00000000      0.00000000      0.00000000      0.00000000      0.00000000      0.00000000      0.00000000      0.00000000      0.00000000      0.00000000      0.00000000      0.00000000****************      0.00000000      0.00000000
      0.00000000      0.00000000****************      0.00000000      0.00000000      0.00000000      0.00000000      0.00000000      0.00000000      0.00000000      0.00000000      0.00000000      0.00000000      0.00000000      0.00000000      0.00000000      0.00000000      0.00000000      0.00000000      0.00000000
      0.00000000      0.00000000      0.00000000      0.00000000      0.00000000      0.00000000      0.00000000      0.00000000      0.00000000      0.00000000      0.00000000      0.00000000      0.00000000      0.00000000      0.00000000      0.00000000      0.00000000      0.00000000      0.00000000      0.00000000
      0.00000000      0.00000000      0.00000000      0.00000000      0.00000000****************      0.00000000      0.00000000      0.00000000      0.00000000****************      0.00000000      0.00000000      0.00000000      0.00000000****************      0.00000000      0.00000000      0.00000000      0.00000000
      0.00000000      0.00000000      0.00000000      0.00000000      0.00000000      0.00000000      0.00000000      0.00000000      0.00000000      0.00000000      0.00000000      0.00000000      0.00000000      0.00000000      0.00000000      0.00000000      0.00000000      0.00000000      0.00000000      0.00000000
      0.00000000      0.00000000      0.00000000      0.00000000      0.00000000      0.00000000      0.00000000      0.00000000      0.00000000      0.00000000      0.00000000      0.00000000      0.00000000      0.00000000      0.00000000      0.00000000      0.00000000      0.00000000****************      0.00000000
      0.00000000      0.00000000      0.00000000****************      0.00000000      0.00000000      0.00000000      0.00000000      0.00000000      0.00000000      0.00000000      0.00000000      0.00000000      0.00000000      0.00000000      0.00000000      0.00000000      0.00000000      0.00000000      0.00000000
      0.00000000      0.00000000      0.00000000      0.00000000      0.00000000      0.00000000      0.00000000      0.00000000      0.00000000      0.00000000      0.00000000      0.00000000      0.00000000      0.00000000      0.00000000      0.00000000      0.00000000      0.00000000      0.00000000      0.00000000
      0.00000000      0.00000000      0.00000000      0.00000000      0.00000000      0.00000000****************      0.00000000      0.00000000      0.00000000      0.00000000****************      0.00000000      0.00000000      0.00000000      0.00000000****************      0.00000000      0.00000000      0.00000000
      0.00000000      0.00000000      0.00000000      0.00000000      0.00000000      0.00000000      0.00000000      0.00000000      0.00000000      0.00000000      0.00000000      0.00000000      0.00000000      0.00000000      0.00000000      0.00000000      0.00000000      0.00000000      0.00000000      0.00000000
      0.00000000      0.00000000      0.00000000      0.00000000      0.00000000      0.00000000      0.00000000      0.00000000      0.00000000      0.00000000      0.00000000      0.00000000      0.00000000      0.00000000      0.00000000      0.00000000      0.00000000      0.00000000      0.00000000****************
      0.00000000      0.00000000      0.00000000      0.00000000****************      0.00000000      0.00000000      0.00000000      0.00000000      0.00000000      0.00000000      0.00000000      0.00000000      0.00000000      0.00000000      0.00000000      0.00000000      0.00000000      0.00000000      0.00000000
      0.00000000      0.00000000      0.00000000      0.00000000      0.00000000      0.00000000      0.00000000      0.00000000      0.00000000      0.00000000      0.00000000      0.00000000      0.00000000      0.00000000      0.00000000      0.00000000      0.00000000      0.00000000      0.00000000      0.00000000
      0.00000000      0.00000000      0.00000000      0.00000000      0.00000000      0.00000000      0.00000000****************      0.00000000      0.00000000      0.00000000      0.00000000****************      0.00000000      0.00000000      0.00000000      0.00000000****************      0.00000000      0.00000000
      0.00000000      0.00000000      0.00000000      0.00000000      0.00000000      0.00000000      0.00000000      0.00000000      0.00000000      0.00000000      0.00000000      0.00000000      0.00000000      0.00000000      0.00000000      0.00000000      0.00000000      0.00000000      0.00000000      0.00000000
      0.00000000      0.00000000      0.00000000      0.00000000      0.00000000      0.00000000      0.00000000      0.00000000      0.00000000      0.00000000      0.00000000      0.00000000      0.00000000      0.00000000      0.00000000      0.00000000      0.00000000      0.00000000      0.00000000      0.00000000
      0.00000000      0.07558904      0.15117808      0.22676712      0.30235616      0.37794520      0.45353424      0.52912328      0.60471232      0.68030136      0.75589040      0.83147943      0.90706847      0.98265751      1.05824655      1.13383559      1.20942463      1.28501367      1.36060271      1.43619175
      1.51178079      1.58736983      1.66295887      1.73854791      1.81413695      1.88972599      1.96531503      2.04090407      2.11649311      2.19208215      2.26767119      2.34326023      2.41884927      2.49443830      2.57002734      2.64561638      2.72120542      2.79679446      2.87238350      2.94797254
      3.02356158      3.09915062      3.17473966      3.25032870      3.32591774      3.40150678      3.47709582      3.55268486      3.62827390      3.70386294      3.77945198      3.85504102      3.93063006      4.00621910      4.08180814      4.15739717      4.23298621      4.30857525      4.38416429      4.45975333
      4.53534237      4.61093141      4.68652045      4.76210949      4.83769853      4.91328757      4.98887661      5.06446565      5.14005469      5.21564373      5.29123277      5.36682181      5.44241085      5.51799989      5.59358893      5.66917797      5.74476701      5.82035604      5.89594508      5.97153412
      6.04712316      6.12271220      6.19830124      6.27389028      6.34947932      6.42506836      6.50065740      6.57624644      6.65183548      6.72742452      6.80301356      6.87860260      6.95419164      7.02978068      7.10536972      7.18095876      7.25654780      7.33213684      7.40772588      7.48331491
      7.55890395      7.63449299      7.71008203      7.78567107      7.86126011      7.93684915      8.01243819      8.08802723      8.16361627      8.23920531      8.31479435      8.39038339      8.46597243      8.54156147      8.61715051      8.69273955      8.76832859      8.84391763      8.91950667      8.99509571
      9.07068475      9.14627378      9.22186282      9.29745186      9.37304090      9.44862994      9.52421898      9.59980802      9.67539706      9.75098610      9.82657514      9.90216418      9.97775322     10.05334226     10.12893130     10.20452034     10.28010938     10.35569842     10.43128746     10.50687650
     10.58246554     10.65805458     10.73364362     10.80923265     10.88482169     10.96041073     11.03599977     11.11158881     11.18717785     11.26276689     11.33835593     11.41394497     11.48953401     11.56512305     11.64071209     11.71630113     11.79189017     11.86747921     11.94306825     12.01865729
     12.09424633     12.16983537     12.24542441     12.32101345     12.39660249     12.47219152     12.54778056     12.62336960     12.69895864     12.77454768     12.85013672     12.92572576     13.00131480     13.07690384     13.15249288     13.22808192     13.30367096     13.37926000     13.45484904     13.53043808
     13.60602712     13.68161616     13.75720520     13.83279424     13.90838328     13.98397232     14.05956136     14.13515039     14.21073943     14.28632847     14.36191751     14.43750655     14.51309559     14.58868463     14.66427367     14.73986271     14.81545175     14.89104079     14.96662983     15.04221887
     15.11780791     15.19339695     15.26898599     15.34457503     15.42016407     15.49575311     15.57134215     15.64693119     15.72252022     15.79810926     15.87369830     15.94928734     16.02487638     16.10046542     16.17605446     16.25164350     16.32723254     16.40282158     16.47841062     16.55399966
     16.62958870     16.70517774     16.78076678     16.85635582     16.93194486     17.00753390     17.08312294     17.15871198     17.23430102     17.30989006     17.38547909     17.46106813     17.53665717     17.61224621     17.68783525     17.76342429     17.83901333     17.91460237     17.99019141     18.06578045
     18.14136949     18.21695853     18.29254757     18.36813661     18.44372565     18.51931469     18.59490373     18.67049277     18.74608181     18.82167085     18.89725989     18.97284893     19.04843796     19.12402700     19.19961604     19.27520508     19.35079412     19.42638316     19.50197220     19.57756124
     19.65315028     19.72873932     19.80432836     19.87991740     19.95550644     20.03109548     20.10668452     20.18227356     20.25786260     20.33345164     20.40904068     20.48462972     20.56021876     20.63580780     20.71139683     20.78698587     20.86257491     20.93816395     21.01375299     21.08934203
     21.16493107     21.24052011     21.31610915     21.39169819     21.46728723     21.54287627     21.61846531     21.69405435     21.76964339     21.84523243     21.92082147     21.99641051     22.07199955     22.14758859     22.22317763     22.29876667     22.37435570     22.44994474     22.52553378     22.60112282
     22.67671186     22.75230090     22.82788994     22.90347898     22.97906802     23.05465706     23.13024610     23.20583514     23.28142418     23.35701322     23.43260226     23.50819130     23.58378034     23.65936938     23.73495842     23.81054746     23.88613650     23.96172554     24.03731457     24.11290361
     24.18849265     24.26408169     24.33967073     24.41525977     24.49084881     24.56643785     24.64202689     24.71761593     24.79320497     24.86879401     24.94438305     25.01997209     25.09556113     25.17115017     25.24673921     25.32232825     25.39791729     25.47350633     25.54909537     25.62468441
     25.70027344     25.77586248     25.85145152     25.92704056     26.00262960     26.07821864     26.15380768     26.22939672     26.30498576     26.38057480     26.45616384     26.53175288     26.60734192     26.68293096     26.75852000     26.83410904     26.90969808     26.98528712     27.06087616     27.13646520
     27.21205424     27.28764328     27.36323231     27.43882135     27.51441039     27.58999943     27.66558847     27.74117751     27.81676655     27.89235559     27.96794463     28.04353367     28.11912271     28.19471175     28.27030079     28.34588983     28.42147887     28.49706791     28.57265695     28.64824599
     28.72383503     28.79942407     28.87501311     28.95060215     29.02619118     29.10178022     29.17736926     29.25295830     29.32854734     29.40413638     29.47972542     29.55531446     29.63090350     29.70649254     29.78208158     29.85767062     29.93325966     30.00884870     30.08443774     30.16002678
     30.23561582     30.31120486     30.38679390     30.46238294     30.53797198     30.61356101     30.68915005     30.76473909     30.84032813     30.91591717     30.99150621     31.06709525     31.14268429     31.21827333     31.29386237     31.36945141     31.44504045     31.52062949     31.59621853     31.67180757
     31.74739661     31.82298565     31.89857469     31.97416373     32.04975277     32.12534181     32.20093085     32.27651988     32.35210892     32.42769796     32.50328700     32.57887604     32.65446508     32.73005412     32.80564316     32.88123220     32.95682124     33.03241028     33.10799932     33.18358836
     33.25917740     33.33476644     33.41035548     33.48594452     33.56153356     33.63712260     33.71271164     33.78830068     33.86388972     33.93947875     34.01506779     34.09065683     34.16624587     34.24183491     34.31742395     34.39301299     34.46860203     34.54419107     34.61978011     34.69536915
     34.77095819     34.84654723     34.92213627     34.99772531     35.07331435     35.14890339     35.22449243     35.30008147     35.37567051     35.45125955     35.52684859     35.60243762     35.67802666     35.75361570     35.82920474     35.90479378     35.98038282     36.05597186     36.13156090     36.20714994
     36.28273898     36.35832802     36.43391706     36.50950610     36.58509514     36.66068418     36.73627322     36.81186226     36.88745130     36.96304034     37.03862938     37.11421842     37.18980746     37.26539649     37.34098553     37.41657457     37.49216361     37.56775265     37.64334169     37.71893073
     37.79451977     37.87010881     37.94569785     38.02128689     38.09687593     38.17246497     38.24805401     38.32364305     38.39923209     38.47482113     38.55041017     38.62599921     38.70158825     38.77717729     38.85276633     38.92835536     39.00394440     39.07953344     39.15512248     39.23071152
     39.30630056     39.38188960     39.45747864     39.53306768     39.60865672     39.68424576     39.75983480     39.83542384     39.91101288     39.98660192     40.06219096     40.13778000     40.21336904     40.28895808     40.36454712     40.44013616     40.51572520     40.59131423     40.66690327     40.74249231
     40.81808135     40.89367039     40.96925943     41.04484847     41.12043751     41.19602655     41.27161559     41.34720463     41.42279367     41.49838271     41.57397175     41.64956079     41.72514983     41.80073887     41.87632791     41.95191695     42.02750599     42.10309503     42.17868407     42.25427310
     42.32986214     42.40545118     42.48104022     42.55662926     42.63221830     42.70780734     42.78339638     42.85898542     42.93457446     43.01016350     43.08575254     43.16134158     43.23693062     43.31251966     43.38810870     43.46369774     43.53928678     43.61487582     43.69046486     43.76605390
     43.84164294     43.91723197     43.99282101     44.06841005     44.14399909     44.21958813     44.29517717     44.37076621     44.44635525     44.52194429     44.59753333     44.67312237     44.74871141     44.82430045     44.89988949     44.97547853     45.05106757     45.12665661     45.20224565     45.27783469
     45.35342373     45.42901277     45.50460180     45.58019084     45.65577988     45.73136892     45.80695796     45.88254700     45.95813604     46.03372508     46.10931412     46.18490316     46.26049220     46.33608124     46.41167028     46.48725932     46.56284836     46.63843740     46.71402644     46.78961548
     46.86520452     46.94079356     47.01638260     47.09197164     47.16756067     47.24314971     47.31873875     47.39432779     47.46991683     47.54550587     47.62109491     47.69668395     47.77227299     47.84786203     47.92345107     47.99904011     48.07462915     48.15021819     48.22580723     48.30139627
     48.37698531     48.45257435     48.52816339     48.60375243     48.67934147     48.75493051     48.83051954     48.90610858     48.98169762     49.05728666     49.13287570     49.20846474     49.28405378     49.35964282     49.43523186     49.51082090     49.58640994     49.66199898     49.73758802     49.81317706
     49.88876610     49.96435514     50.03994418     50.11553322     50.19112226     50.26671130     50.34230034     50.41788938     50.49347841     50.56906745     50.64465649     50.72024553     50.79583457     50.87142361     50.94701265     51.02260169     51.09819073     51.17377977     51.24936881     51.32495785
     51.40054689     51.47613593     51.55172497     51.62731401     51.70290305     51.77849209     51.85408113     51.92967017     52.00525921     52.08084825     52.15643728     52.23202632     52.30761536     52.38320440     52.45879344     52.53438248     52.60997152     52.68556056     52.76114960     52.83673864
     52.91232768     52.98791672     53.06350576     53.13909480     53.21468384     53.29027288     53.36586192     53.44145096     53.51704000     53.59262904     53.66821808     53.74380712     53.81939615     53.89498519     53.97057423     54.04616327     54.12175231     54.19734135     54.27293039     54.34851943
     54.42410847     54.49969751     54.57528655     54.65087559     54.72646463     54.80205367     54.87764271     54.95323175     55.02882079     55.10440983     55.17999887     55.25558791     55.33117695     55.40676599     55.48235502     55.55794406     55.63353310     55.70912214     55.78471118     55.86030022
     55.93588926     56.01147830     56.08706734     56.16265638     56.23824542     56.31383446     56.38942350     56.46501254     56.54060158     56.61619062     56.69177966     56.76736870     56.84295774     56.91854678     56.99413582     57.06972486     57.14531389     57.22090293     57.29649197     57.37208101
     57.44767005     57.52325909     57.59884813     57.67443717     57.75002621     57.82561525     57.90120429     57.97679333     58.05238237     58.12797141     58.20356045     58.27914949     58.35473853     58.43032757     58.50591661     58.58150565     58.65709469     58.73268373     58.80827276     58.88386180
     58.95945084     59.03503988     59.11062892     59.18621796     59.26180700     59.33739604     59.41298508     59.48857412     59.56416316     59.63975220     59.71534124     59.79093028     59.86651932     59.94210836     60.01769740     60.09328644     60.16887548     60.24446452     60.32005356     60.39564259
     60.47123163     60.54682067     60.62240971     60.69799875     60.77358779     60.84917683     60.92476587     61.00035491     61.07594395     61.15153299     61.22712203     61.30271107     61.37830011     61.45388915     61.52947819     61.60506723     61.68065627     61.75624531     61.83183435     61.90742339
     61.98301243     62.05860146     62.13419050     62.20977954     62.28536858     62.36095762     62.43654666     62.51213570     62.58772474     62.66331378     62.73890282     62.81449186     62.89008090     62.96566994     63.04125898     63.11684802     63.19243706     63.26802610     63.34361514     63.41920418
     63.49479322     63.57038226     63.64597130     63.72156033     63.79714937     63.87273841     63.94832745     64.02391649     64.09950553     64.17509457     64.25068361     64.32627265     64.40186169     64.47745073     64.55303977     64.62862881     64.70421785     64.77980689     64.85539593     64.93098497
     65.00657401     65.08216305     65.15775209     65.23334113     65.30893017     65.38451920     65.46010824     65.53569728     65.61128632     65.68687536     65.76246440     65.83805344     65.91364248     65.98923152     66.06482056     66.14040960     66.21599864     66.29158768     66.36717672     66.44276576
     66.51835480     66.59394384     66.66953288     66.74512192     66.82071096     66.89630000     66.97188904     67.04747807     67.12306711     67.19865615     67.27424519     67.34983423     67.42542327     67.50101231     67.57660135     67.65219039     67.72777943     67.80336847     67.87895751     67.95454655
     68.03013559     68.10572463     68.18131367     68.25690271     68.33249175     68.40808079     68.48366983     68.55925887     68.63484791     68.71043694     68.78602598     68.86161502     68.93720406     69.01279310     69.08838214     69.16397118     69.23956022     69.31514926     69.39073830     69.46632734
     69.54191638     69.61750542     69.69309446     69.76868350     69.84427254     69.91986158     69.99545062     70.07103966     70.14662870     70.22221774     70.29780678     70.37339581     70.44898485     70.52457389     70.60016293     70.67575197     70.75134101     70.82693005     70.90251909     70.97810813
     71.05369717     71.12928621     71.20487525     71.28046429     71.35605333     71.43164237     71.50723141     71.58282045     71.65840949     71.73399853     71.80958757     71.88517661     71.96076565     72.03635468     72.11194372     72.18753276     72.26312180     72.33871084     72.41429988     72.48988892
     72.56547796     72.64106700     72.71665604     72.79224508     72.86783412     72.94342316     73.01901220     73.09460124     73.17019028     73.24577932     73.32136836     73.39695740     73.47254644     73.54813548     73.62372452     73.69931355     73.77490259     73.85049163     73.92608067     74.00166971
     74.07725875     74.15284779     74.22843683     74.30402587     74.37961491     74.45520395     74.53079299     74.60638203     74.68197107     74.75756011     74.83314915     74.90873819     74.98432723     75.05991627     75.13550531     75.21109435     75.28668338     75.36227242     75.43786146     75.51345050
     79.99039300     80.00033700     80.01384700     80.03635500     80.06784500     80.10828800     80.15763600     80.21581700     80.28273100     80.35824400     80.44218200     80.53433700     80.63446000     80.74226600     80.85743300     80.97960900     81.10840900     81.24341600     81.38418800     81.53024900
     81.68109500     81.83618800     81.99495300     82.15678200     82.32102500     82.48699300     82.65395900     82.82115200     82.98776700     83.15295900     83.31584700     83.47551900     83.63102700     83.78139700     83.92562400     84.06267600     84.19150000     84.31101700     84.42013300     84.51773300
     84.60269500     84.67388400     84.73016400     84.77039900     84.79345500     84.79821300     84.78356300     84.74841800     84.69171200     84.61240700     84.50949900     84.38202300     84.22905300     84.04971200     83.84317600     83.60867800     83.34551200     83.05303700     82.73068500     82.37796000
     81.99444500     81.57980200     81.13377900     80.65620900     80.14701200     79.60620000     79.03387600     78.43023800     77.79557600     77.13027400     76.43481100     75.70976000     74.95578700     74.17364600     73.36418200     72.52832800     71.66709600     70.78158200     69.87295700     68.94246500
     67.99141700     67.02119000     66.03321700     65.02898700     64.01003300     62.97793400     61.93430100     60.88077600     59.81902400     58.75072400     57.67756900     56.60124900     55.52345600     54.44586900     53.37015100     52.29794100     51.23085100     50.17045600     49.11828900     48.07583700
     47.04453600     46.02576100     45.02082600     44.03097700     43.05739200     42.10117000     41.16333500     40.24482700     39.34650700     38.46914600     37.61343100     36.77996000     35.96924100     35.18169500     34.41765200     33.67735400     32.96095700     32.26852900     31.60005700     30.95544500
     30.33451700     29.73702400     29.16264200     28.61098100     28.08158300     27.57393300     27.08745500     26.62152500     26.17547100     25.74857800     25.34009500     24.94923800     24.57519700     24.21714000     23.87421700     23.54556800     23.23032600     22.92762100     22.63658800     22.35636700
     22.08611000     21.82498700     21.57218400     21.32691400     21.08841400     20.85595500     20.62883600     20.40639600     20.18800800     19.97308900     19.76109200     19.55151700     19.34390600     19.13784400     18.93296300     18.72893700     18.52548600     18.32237300     18.11940600     17.91643200
     17.71334100     17.51006200     17.30656100     17.10283800     16.89892900     16.69489800     16.49084100     16.28687600     16.08314900     15.87982400     15.67708300     15.47512400     15.27415800     15.07440500     14.87609400     14.67945600     14.48472500     14.29213500     14.10191500     13.91429100
     13.72948100     13.54769100     13.36911800     13.19394700     13.02234600     12.85446900     12.69045200     12.53041300     12.37445200     12.22264900     12.07506300     11.93173600     11.79268600     11.65791400     11.52740100     11.40110700     11.27897500     11.16092900     11.04687700     10.93671000
     10.83030400     10.72752300     10.62821600     10.53222300     10.43937200     10.34948500     10.26237600     10.17785400     10.09572300     10.01578700      9.93784810      9.86170850      9.78717310      9.71405000      9.64215210      9.57129810      9.50131380      9.43203280      9.36329800      9.29496210
      9.22688860      9.15895210      9.09103930      9.02304900      8.95489290      8.88649520      8.81779310      8.74873670      8.67928890      8.60942510      8.53913300      8.46841210      8.39727320      8.32573800      8.25383860      8.18161640      8.10912140      8.03641180      7.96355270      7.89061540
      7.81767660      7.74481730      7.67212170      7.59967690      7.52757140      7.45589440      7.38473490      7.31418120      7.24431930      7.17523300      7.10700260      7.03970450      6.97341020      6.90818620      6.84409340      6.78118640      6.71951350      6.65911590      6.60002840      6.54227800
      6.48588510      6.43086250      6.37721580      6.32494360      6.27403770      6.22448270      6.17625730      6.12933360      6.08367820      6.03925230      5.99601220      5.95390960      5.91289270      5.87290580      5.83389070      5.79578670      5.75853140      5.72206100      5.68631110      5.65121710
      5.61671460      5.58274030      5.54923200      5.51612930      5.48337410      5.45091080      5.41868680      5.38665270      5.35476260      5.32297430      5.29124980      5.25955490      5.22785970      5.19613850      5.16437020      5.13253770      5.10062830      5.06863350      5.03654880      5.00437370
      4.97211140      4.93976860      4.90735530      4.87488440      4.84237180      4.80983560      4.77729610      4.74477560      4.71229780      4.67988760      4.64757110      4.61537450      4.58332480      4.55144860      4.51977240      4.48832200      4.45712240      4.42619750      4.39556980      4.36526060
      4.33528920      4.30567330      4.27642860      4.24756870      4.21910540      4.19104780      4.16340340      4.13617700      4.10937140      4.08298750      4.05702360      4.03147650      4.00634080      3.98160950      3.95727380      3.93332360      3.90974740      3.88653240      3.86366500      3.84113060
      3.81891410      3.79699980      3.77537170      3.75401360      3.73290960      3.71204370      3.69140040      3.67096470      3.65072230      3.63065970      3.61076400      3.59102360      3.57142760      3.55196650      3.53263180      3.51341610      3.49431340      3.47531850      3.45642790      3.43763880
      3.41894990      3.40036080      3.38187210      3.36348530      3.34520290      3.32702780      3.30896400      3.29101570      3.27318760      3.25548470      3.23791240      3.22047580      3.20318030      3.18603110      3.16903310      3.15219100      3.13550890      3.11899050      3.10263880      3.08645620
      3.07044430      3.05460400      3.03893530      3.02343740      3.00810870      2.99294660      2.97794780      2.96310830      2.94842290      2.93388610      2.91949140      2.90523170      2.89109950      2.87708650      2.86318420      2.84938380      2.83567620      2.82205210      2.80850240      2.79501780
      2.78158950      2.76820870      2.75486720      2.74155700      2.72827090      2.71500240      2.70174530      2.68849470      2.67524620      2.66199650      2.64874320      2.63548500      2.62222140      2.60895320      2.59568210      2.58241070      2.56914290      2.55588330      2.54263750      2.52941200
      2.51621410      2.50305190      2.48993420      2.47687030      2.46387000      2.45094370      2.43810170      2.42535490      2.41271400      2.40018980      2.38779290      2.37553370      2.36342210      2.35146760      2.33967920      2.32806510      2.31663290      2.30538920      2.29433990      2.28348950
      2.27284200      2.26239980      2.25216430      2.24213600      2.23231390      2.22269580      2.21327840      2.20405740      2.19502710      2.18618070      2.17751050      2.16900780      2.16066280      2.15246500      2.14440310      2.13646490      2.12863800      2.12090910      2.11326490      2.10569160
      2.09817540      2.09070240      2.08325890      2.07583130      2.06840640      2.06097140      2.05351410      2.04602290      2.03848690      2.03089620      2.02324150      2.01551500      2.00770940      1.99981890      1.99183890      1.98376580      1.97559720      1.96733230      1.95897110      1.95051530
      1.94196730      1.93333120      1.92461180      1.91581550      1.90694930      1.89802140      1.88904100      1.88001780      1.87096260      1.86188670      1.85280180      1.84372020      1.83465440      1.82561710      1.81662130      1.80767960      1.79880490      1.79000940      1.78130540      1.77270430
      1.76421740      1.75585500      1.74762690      1.73954180      1.73160790      1.72383190      1.71622010      1.70877720      1.70150710      1.69441240      1.68749480      1.68075470      1.67419120      1.66780260      1.66158580      1.65553660      1.64965010      1.64392010      1.63833940      1.63290020
      1.62759360      1.62241030      1.61734020      1.61237250      1.60749620      1.60269990      1.59797180      1.59330010      1.58867280      1.58407820      1.57950430      1.57493980      1.57037340      1.56579430      1.56119220      1.55655750      1.55188110      1.54715480      1.54237100      1.53752290
      1.53260490      1.52761200      1.52254030      1.51738680      1.51214940      1.50682720      1.50142000      1.49592890      1.49035550      1.48470270      1.47897410      1.47317410      1.46730810      1.46138180      1.45540200      1.44937570      1.44331080      1.43721520      1.43109760      1.42496670
      1.41883140      1.41270090      1.40658440      1.40049080      1.39442940      1.38840870      1.38243740      1.37652370      1.37067520      1.36489940      1.35920290      1.35359210      1.34807240      1.34264870      1.33732540      1.33210600      1.32699320      1.32198900      1.31709490      1.31231120
      1.30763780      1.30307380      1.29861750      1.29426640      1.29001780      1.28586790      1.28181250      1.27784710      1.27396640      1.27016480      1.26643640      1.26277490      1.25917390      1.25562660      1.25212620      1.24866580      1.24523850      1.24183740      1.23845600      1.23508750
      1.23172560      1.22836430      1.22499790      1.22162100      1.21822860      1.21481600      1.21137930      1.20791480      1.20441930      1.20089030      1.19732560      1.19372370      1.19008370      1.18640500      1.18268760      1.17893200      1.17513940      1.17131100      1.16744880      1.16355510
      1.15963260      1.15568410      1.15171300      1.14772280      1.14371720      1.13970020      1.13567580      1.13164810      1.12762140      1.12359990      1.11958760      1.11558870      1.11160710      1.10764670      1.10371110      1.09980370      1.09592780      1.09208620      1.08828170      1.08451660
      1.08079310      1.07711270      1.07347710      1.06988730      1.06634400      1.06284760      1.05939830      1.05599590      1.05263990      1.04932940      1.04606360      1.04284100      1.03966030      1.03651960      1.03341720      1.03035090      1.02731870      1.02431830      1.02134740      1.01840360
      1.01548450      1.01258780      1.00971110      1.00685220      1.00400880      1.00117900      0.99836072      0.99555211      0.99275152      0.98995742      0.98716845      0.98438344      0.98160139      0.97882150      0.97604315      0.97326594      0.97048960      0.96771410      0.96493952      0.96216614
      0.95939435      0.95662469      0.95385782      0.95109448      0.94833552      0.94558184      0.94283440      0.94009419      0.93736222      0.93463952      0.93192706      0.92922581      0.92653667      0.92386048      0.92119798      0.91854983      0.91591659      0.91329870      0.91069649      0.90811016
      0.90553979      0.90298532      0.90044659      0.89792328      0.89541496      0.89292109      0.89044100      0.88797392      0.88551898      0.88307526      0.88064172      0.87821731      0.87580093      0.87339144      0.87098773      0.86858865      0.86619311      0.86380004      0.86140843      0.85901733
[...]
       </set>
       <set comment="band 12">
        <r>  0.0134  0.3445  0.0002  0.0000  0.0000  0.0002  0.0015  0.0000  0.0125 </r>
        <r>  0.0141  0.2060  0.0012  0.0000  0.0000  0.0011  0.0010  0.0000  0.0175 </r>
       </set>
       <set comment="band 13">
        <r>  0.0000  0.0000  0.0000  0.3965  0.0045  0.0000  0.0000  0.0001  0.0000 </r>
        <r>  0.0000  0.0000  0.0000  0.2579  0.0002  0.0000  0.0000  0.0012  0.0000 </r>
       </set>
       <set comment="band 14">
        <r>  0.0048  0.0027  0.2826  0.0000  0.0000  0.0000  0.0041  0.0000  0.0002 </r>
        <r>  0.0057  0.0012  0.3868  0.0000  0.0000  0.0078  0.0037  0.0000  0.0004 </r>
       </set>
       <set comment="band 15">
        <r>  0.0026  0.0045  0.1202  0.0000  0.0000  0.0553  0.0001  0.0000  0.0000 </r>
        <r>  0.0004  0.0037  0.0005  0.0000  0.0000  0.0942  0.0042  0.0000  0.0000 </r>
       </set>
       <set comment="band 16">
        <r>  0.0158  0.0103  0.0055  0.0000  0.0000  0.0001  0.0077  0.0000  0.1713 </r>
        <r>  0.0134  0.0106  0.0001  0.0000  0.0000  0.0001  0.0045  0.0000  0.2501 </r>
       </set>
      </set>
      <set comment="kpoint 52">
       <set comment="band 1">
        <r>  0.0000  0.0000  0.0000  0.0000  0.0028  0.0000  0.9750  0.0000  0.0096 </r>
        <r>  0.0012  0.0000  0.0000  0.0000  0.0000  0.0000  0.0000  0.0000  0.0000 </r>
       </set>
       <set comment="band 2">
        <r>  0.0000  0.0000  0.0000  0.0000  0.0145  0.0000  0.0083  0.0000  0.9674 </r>
        <r>  0.0000  0.0001  0.0000  0.0000  0.0000  0.0000  0.0000  0.0000  0.0001 </r>
       </set>
       <set comment="band 3">
        <r>  0.0000  0.0000  0.0000  0.0000  0.9730  0.0000  0.0041  0.0000  0.0132 </r>
        <r>  0.0000  0.0000  0.0000  0.0000  0.0000  0.0000  0.0000  0.0000  0.0000 </r>
       </set>
       <set comment="band 4">
        <r>  0.0000  0.0000  0.0000  0.0000  0.0000  0.9819  0.0000  0.0093  0.0000 </r>
        <r>  0.0000  0.0000  0.0000  0.0000  0.0000  0.0000  0.0000  0.0000  0.0000 </r>
       </set>
       <set comment="band 5">
        <r>  0.0000  0.0000  0.0000  0.0000  0.0000  0.0093  0.0000  0.9822  0.0000 </r>
        <r>  0.0000  0.0000  0.0000  0.0000  0.0000  0.0000  0.0000  0.0000  0.0000 </r>
       </set>
       <set comment="band 6">
        <r>  0.0142  0.0055  0.0000  0.0008  0.0000  0.0000  0.0095  0.0000  0.0002 </r>
        <r>  0.6644  0.0000  0.0000  0.0000  0.0000  0.0000  0.0001  0.0000  0.0000 </r>
       </set>
       <set comment="band 7">
        <r>  0.5835  0.0038  0.0000  0.0015  0.0001  0.0000  0.0000  0.0000  0.0002 </r>
        <r>  0.0182  0.0358  0.0000  0.0071  0.0000  0.0000  0.0059  0.0000  0.0002 </r>
       </set>
       <set comment="band 8">
        <r>  0.0000  0.0000  0.1511  0.0000  0.0000  0.0010  0.0000  0.0001  0.0000 </r>
        <r>  0.0000  0.0000  0.2347  0.0000  0.0000  0.0005  0.0000  0.0001  0.0000 </r>
       </set>
       <set comment="band 9">
        <r>  0.0100  0.0011  0.0000  0.1493  0.0019  0.0000  0.0002  0.0000  0.0009 </r>
        <r>  0.0020  0.0048  0.0000  0.2711  0.0010  0.0000  0.0003  0.0000  0.0003 </r>
       </set>
       <set comment="band 10">
        <r>  0.0793  0.1302  0.0000  0.0009  0.0006  0.0000  0.0032  0.0000  0.0041 </r>
        <r>  0.0156  0.2876  0.0000  0.0004  0.0003  0.0000  0.0041  0.0000  0.0007 </r>
       </set>
       <set comment="band 11">
        <r>  0.0211  0.3020  0.0000  0.0010  0.0035  0.0000  0.0015  0.0000  0.0126 </r>
        <r>  0.0205  0.1749  0.0000  0.0017  0.0067  0.0000  0.0012  0.0000  0.0198 </r>
       </set>
       <set comment="band 12">
        <r>  0.0000  0.0363  0.0000  0.0034  0.0624  0.0000  0.0000  0.0000  0.0020 </r>
        <r>  0.0010  0.0030  0.0000  0.0646  0.0663  0.0000  0.0003  0.0000  0.0032 </r>
       </set>
       <set comment="band 13">
        <r>  0.0066  0.0017  0.0000  0.3775  0.0132  0.0000  0.0009  0.0000  0.0035 </r>
        <r>  0.0069  0.0003  0.0000  0.2160  0.0016  0.0000  0.0007  0.0000  0.0048 </r>
       </set>
       <set comment="band 14">
        <r>  0.0000  0.0000  0.2341  0.0000  0.0000  0.0014  0.0000  0.0000  0.0000 </r>
        <r>  0.0000  0.0000  0.3825  0.0000  0.0000  0.0214  0.0000  0.0017  0.0000 </r>
       </set>
       <set comment="band 15">
        <r>  0.0000  0.0000  0.1745  0.0000  0.0000  0.0668  0.0000  0.0002  0.0000 </r>
        <r>  0.0000  0.0000  0.0061  0.0000  0.0000  0.0760  0.0000  0.0002  0.0000 </r>
       </set>
       <set comment="band 16">
        <r>  0.0012  0.0003  0.0500  0.0011  0.0000  0.0006  0.0014  0.0347  0.0098 </r>
        <r>  0.0019  0.0005  0.0030  0.0011  0.0000  0.0082  0.0002  0.1376  0.0159 </r>
       </set>
      </set>
      <set comment="kpoint 53">
       <set comment="band 1">
        <r>  0.0000  0.0000  0.0000  0.0000  0.0000  0.0091  0.9321  0.0000  0.0470 </r>
        <r>  0.0007  0.0000  0.0001  0.0000  0.0000  0.0000  0.0000  0.0000  0.0000 </r>
       </set>
       <set comment="band 2">
        <r>  0.0000  0.0000  0.0000  0.0000  0.0000  0.0365  0.0538  0.0000  0.8996 </r>
        <r>  0.0000  0.0002  0.0000  0.0000  0.0000  0.0000  0.0000  0.0000  0.0000 </r>
       </set>
       <set comment="band 3">
        <r>  0.0000  0.0000  0.0000  0.0000  0.9783  0.0000  0.0000  0.0121  0.0000 </r>
        <r>  0.0000  0.0000  0.0000  0.0000  0.0000  0.0000  0.0000  0.0000  0.0000 </r>
       </set>
       <set comment="band 4">
        <r>  0.0000  0.0000  0.0000  0.0000  0.0000  0.9453  0.0024  0.0000  0.0432 </r>
        <r>  0.0000  0.0000  0.0000  0.0000  0.0000  0.0000  0.0000  0.0000  0.0000 </r>
       </set>
       <set comment="band 5">
        <r>  0.0000  0.0000  0.0000  0.0000  0.0122  0.0000  0.0000  0.9791  0.0000 </r>
        <r>  0.0000  0.0000  0.0000  0.0000  0.0000  0.0000  0.0000  0.0000  0.0000 </r>
       </set>
       <set comment="band 6">
        <r>  0.0236  0.0073  0.0066  0.0000  0.0000  0.0000  0.0048  0.0000  0.0006 </r>
        <r>  0.6274  0.0003  0.0014  0.0000  0.0000  0.0000  0.0001  0.0000  0.0000 </r>
       </set>
       <set comment="band 7">
        <r>  0.5099  0.0026  0.0015  0.0000  0.0000  0.0004  0.0006  0.0000  0.0007 </r>
        <r>  0.0437  0.0360  0.0315  0.0000  0.0000  0.0000  0.0024  0.0000  0.0005 </r>
       </set>
       <set comment="band 8">
        <r>  0.0000  0.0000  0.0000  0.1505  0.0026  0.0000  0.0000  0.0011  0.0000 </r>
        <r>  0.0000  0.0000  0.0000  0.2714  0.0012  0.0000  0.0000  0.0005  0.0000 </r>
       </set>
       <set comment="band 9">
        <r>  0.0493  0.0006  0.1339  0.0000  0.0000  0.0010  0.0074  0.0000  0.0002 </r>
        <r>  0.0077  0.0196  0.2216  0.0000  0.0000  0.0008  0.0037  0.0000  0.0001 </r>
       </set>
       <set comment="band 10">
        <r>  0.1055  0.0833  0.0092  0.0000  0.0000  0.0017  0.0037  0.0000  0.0090 </r>
        <r>  0.0095  0.3389  0.0002  0.0000  0.0000  0.0001  0.0056  0.0000  0.0004 </r>
       </set>
       <set comment="band 11">
        <r>  0.0144  0.3475  0.0004  0.0000  0.0000  0.0010  0.0011  0.0000  0.0085 </r>
        <r>  0.0371  0.0827  0.0035  0.0000  0.0000  0.0049  0.0023  0.0000  0.0199 </r>
       </set>
       <set comment="band 12">
        <r>  0.0331  0.0076  0.2724  0.0000  0.0000  0.0009  0.0116  0.0000  0.0005 </r>
        <r>  0.0237  0.0037  0.2663  0.0000  0.0000  0.0073  0.0155  0.0000  0.0018 </r>
       </set>
       <set comment="band 13">
        <r>  0.0000  0.0000  0.0000  0.0240  0.0474  0.0000  0.0000  0.0000  0.0000 </r>
        <r>  0.0000  0.0000  0.0000  0.1417  0.0682  0.0000  0.0000  0.0013  0.0000 </r>
       </set>
       <set comment="band 14">
        <r>  0.0000  0.0000  0.0000  0.3549  0.0316  0.0000  0.0000  0.0003  0.0000 </r>
        <r>  0.0000  0.0000  0.0000  0.1569  0.0095  0.0000  0.0000  0.0072  0.0000 </r>
       </set>
       <set comment="band 15">
        <r>  0.0027  0.0234  0.0702  0.0000  0.0000  0.0681  0.0000  0.0000  0.0031 </r>
        <r>  0.0022  0.0171  0.0113  0.0000  0.0000  0.0749  0.0066  0.0000  0.0058 </r>
       </set>
       <set comment="band 16">
        <r>  0.0000  0.0000  0.0000  0.0594  0.0014  0.0000  0.0000  0.0624  0.0000 </r>
        <r>  0.0000  0.0000  0.0000  0.0043  0.0076  0.0000  0.0000  0.1270  0.0000 </r>
       </set>
      </set>
      <set comment="kpoint 54">
       <set comment="band 1">
        <r>  0.0000  0.0000  0.0000  0.0000  0.0041  0.0087  0.8170  0.0000  0.1583 </r>
        <r>  0.0009  0.0000  0.0001  0.0000  0.0000  0.0000  0.0000  0.0000  0.0000 </r>
       </set>
       <set comment="band 2">
        <r>  0.0000  0.0000  0.0000  0.0000  0.0040  0.0156  0.1629  0.0013  0.8061 </r>
        <r>  0.0000  0.0002  0.0000  0.0000  0.0000  0.0000  0.0000  0.0000  0.0000 </r>
       </set>
       <set comment="band 3">
        <r>  0.0000  0.0000  0.0000  0.0000  0.9575  0.0132  0.0060  0.0118  0.0021 </r>
        <r>  0.0000  0.0000  0.0000  0.0000  0.0000  0.0000  0.0000  0.0000  0.0000 </r>
       </set>
       <set comment="band 4">
        <r>  0.0000  0.0000  0.0000  0.0000  0.0157  0.9476  0.0021  0.0046  0.0208 </r>
        <r>  0.0000  0.0000  0.0000  0.0000  0.0000  0.0000  0.0000  0.0000  0.0000 </r>
       </set>
       <set comment="band 5">
        <r>  0.0000  0.0000  0.0000  0.0000  0.0093  0.0057  0.0005  0.9736  0.0022 </r>
        <r>  0.0000  0.0000  0.0000  0.0000  0.0000  0.0000  0.0000  0.0000  0.0000 </r>
       </set>
       <set comment="band 6">
        <r>  0.0032  0.0095  0.0035  0.0009  0.0000  0.0000  0.0055  0.0000  0.0014 </r>
        <r>  0.6633  0.0000  0.0004  0.0000  0.0000  0.0000  0.0000  0.0000  0.0000 </r>
       </set>
       <set comment="band 7">
        <r>  0.5394  0.0004  0.0023  0.0012  0.0001  0.0003  0.0000  0.0000  0.0005 </r>
        <r>  0.0061  0.0402  0.0190  0.0058  0.0000  0.0000  0.0028  0.0000  0.0009 </r>
       </set>
       <set comment="band 8">
        <r>  0.0002  0.0001  0.0244  0.1211  0.0021  0.0004  0.0014  0.0002  0.0006 </r>
        <r>  0.0055  0.0001  0.0464  0.2125  0.0010  0.0002  0.0000  0.0003  0.0001 </r>
       </set>
       <set comment="band 9">
        <r>  0.0413  0.0000  0.1172  0.0267  0.0003  0.0014  0.0025  0.0004  0.0004 </r>
        <r>  0.0023  0.0124  0.1873  0.0402  0.0002  0.0009  0.0023  0.0000  0.0003 </r>
       </set>
       <set comment="band 10">
        <r>  0.1215  0.0188  0.0036  0.0006  0.0005  0.0012  0.0059  0.0000  0.0153 </r>
        <r>  0.0023  0.4088  0.0000  0.0000  0.0001  0.0000  0.0044  0.0000  0.0000 </r>
       </set>
       <set comment="band 11">
        <r>  0.0040  0.4161  0.0001  0.0003  0.0000  0.0005  0.0000  0.0000  0.0026 </r>
        <r>  0.0468  0.0181  0.0009  0.0001  0.0007  0.0027  0.0047  0.0000  0.0209 </r>
       </set>
       <set comment="band 12">
        <r>  0.0021  0.0076  0.1059  0.0521  0.0104  0.0002  0.0076  0.0000  0.0014 </r>
        <r>  0.0099  0.0000  0.1342  0.1301  0.0252  0.0077  0.0044  0.0026  0.0040 </r>
       </set>
       <set comment="band 13">
        <r>  0.0204  0.0001  0.1247  0.0337  0.0134  0.0004  0.0027  0.0002  0.0002 </r>
        <r>  0.0035  0.0046  0.1576  0.1022  0.0291  0.0114  0.0055  0.0000  0.0000 </r>
       </set>
       <set comment="band 14">
        <r>  0.0053  0.0012  0.0052  0.2846  0.0535  0.0003  0.0001  0.0004  0.0024 </r>
        <r>  0.0032  0.0008  0.0011  0.0723  0.0255  0.0001  0.0024  0.0024  0.0031 </r>
       </set>
       <set comment="band 15">
        <r>  0.0015  0.0117  0.1173  0.0013  0.0006  0.0743  0.0011  0.0001  0.0004 </r>
        <r>  0.0068  0.0065  0.0000  0.0005  0.0003  0.0637  0.0041  0.0004  0.0007 </r>
       </set>
       <set comment="band 16">
        <r>  0.0042  0.0000  0.0047  0.0314  0.0010  0.0002  0.0003  0.0427  0.0053 </r>
        <r>  0.0022  0.0000  0.0043  0.0118  0.0083  0.0003  0.0026  0.1342  0.0112 </r>
       </set>
      </set>
      <set comment="kpoint 55">
       <set comment="band 1">
        <r>  0.0000  0.0000  0.0000  0.0000  0.0000  0.0011  0.9390  0.0000  0.0476 </r>
        <r>  0.0011  0.0000  0.0000  0.0000  0.0000  0.0000  0.0000  0.0000  0.0000 </r>
       </set>
       <set comment="band 2">
        <r>  0.0000  0.0000  0.0000  0.0000  0.0000  0.0064  0.0486  0.0000  0.9350 </r>
        <r>  0.0000  0.0002  0.0000  0.0000  0.0000  0.0000  0.0000  0.0000  0.0000 </r>
       </set>
       <set comment="band 3">
        <r>  0.0000  0.0000  0.0000  0.0000  0.9893  0.0000  0.0000  0.0012  0.0000 </r>
        <r>  0.0000  0.0000  0.0000  0.0000  0.0000  0.0000  0.0000  0.0000  0.0000 </r>
       </set>
       <set comment="band 4">
        <r>  0.0000  0.0000  0.0000  0.0000  0.0000  0.9835  0.0002  0.0000  0.0073 </r>
        <r>  0.0000  0.0000  0.0000  0.0000  0.0000  0.0000  0.0000  0.0000  0.0000 </r>
       </set>
       <set comment="band 5">
        <r>  0.0000  0.0000  0.0000  0.0000  0.0012  0.0000  0.0000  0.9903  0.0000 </r>
        <r>  0.0000  0.0000  0.0000  0.0000  0.0000  0.0000  0.0000  0.0000  0.0000 </r>
       </set>
       <set comment="band 6">
        <r>  0.0084  0.0080  0.0011  0.0000  0.0000  0.0000  0.0081  0.0000  0.0007 </r>
        <r>  0.6668  0.0000  0.0002  0.0000  0.0000  0.0000  0.0001  0.0000  0.0000 </r>
       </set>
       <set comment="band 7">
        <r>  0.5720  0.0020  0.0015  0.0000  0.0000  0.0001  0.0000  0.0000  0.0006 </r>
        <r>  0.0126  0.0420  0.0081  0.0000  0.0000  0.0000  0.0047  0.0000  0.0006 </r>
       </set>
       <set comment="band 8">
        <r>  0.0159  0.0001  0.1478  0.0000  0.0000  0.0015  0.0010  0.0000  0.0000 </r>
        <r>  0.0014  0.0030  0.2319  0.0000  0.0000  0.0008  0.0007  0.0000  0.0000 </r>
       </set>
       <set comment="band 9">
        <r>  0.0000  0.0000  0.0000  0.1519  0.0026  0.0000  0.0000  0.0001  0.0000 </r>
        <r>  0.0000  0.0000  0.0000  0.2649  0.0012  0.0000  0.0000  0.0001  0.0000 </r>
       </set>
       <set comment="band 10">
        <r>  0.0956  0.1000  0.0008  0.0000  0.0000  0.0002  0.0047  0.0000  0.0083 </r>
        <r>  0.0129  0.3295  0.0000  0.0000  0.0000  0.0000  0.0052  0.0000  0.0007 </r>
       </set>
       <set comment="band 11">
        <r>  0.0203  0.3544  0.0000  0.0000  0.0000  0.0003  0.0007  0.0000  0.0105 </r>
        <r>  0.0330  0.1173  0.0006  0.0000  0.0000  0.0009  0.0022  0.0000  0.0221 </r>
       </set>
       <set comment="band 12">
        <r>  0.0000  0.0000  0.0000  0.0056  0.0583  0.0000  0.0000  0.0000  0.0000 </r>
        <r>  0.0000  0.0000  0.0000  0.1021  0.0739  0.0000  0.0000  0.0001  0.0000 </r>
       </set>
       <set comment="band 13">
        <r>  0.0053  0.0028  0.2030  0.0000  0.0000  0.0032  0.0035  0.0000  0.0002 </r>
        <r>  0.0036  0.0013  0.3409  0.0000  0.0000  0.0293  0.0032  0.0000  0.0007 </r>
       </set>
       <set comment="band 14">
        <r>  0.0000  0.0000  0.0000  0.3946  0.0211  0.0000  0.0000  0.0001  0.0000 </r>
        <r>  0.0000  0.0000  0.0000  0.2156  0.0031  0.0000  0.0000  0.0013  0.0000 </r>
       </set>
       <set comment="band 15">
        <r>  0.0016  0.0024  0.1880  0.0000  0.0000  0.0708  0.0012  0.0000  0.0001 </r>
        <r>  0.0029  0.0021  0.0112  0.0000  0.0000  0.0599  0.0031  0.0000  0.0001 </r>
       </set>
       <set comment="band 16">
        <r>  0.0360  0.0005  0.0102  0.0000  0.0000  0.0001  0.0271  0.0000  0.1185 </r>
        <r>  0.0381  0.0010  0.0000  0.0000  0.0000  0.0013  0.0089  0.0000  0.1900 </r>
       </set>
      </set>
      <set comment="kpoint 56">
       <set comment="band 1">
        <r>  0.0000  0.0000  0.0000  0.0000  0.0039  0.0000  0.8327  0.0000  0.1512 </r>
        <r>  0.0011  0.0000  0.0000  0.0000  0.0000  0.0000  0.0000  0.0000  0.0000 </r>
       </set>
       <set comment="band 2">
        <r>  0.0000  0.0000  0.0000  0.0000  0.0042  0.0000  0.1486  0.0000  0.8371 </r>
        <r>  0.0000  0.0002  0.0000  0.0000  0.0000  0.0000  0.0000  0.0000  0.0000 </r>
       </set>
       <set comment="band 3">
        <r>  0.0000  0.0000  0.0000  0.0000  0.9825  0.0000  0.0069  0.0000  0.0012 </r>
        <r>  0.0000  0.0000  0.0000  0.0000  0.0000  0.0000  0.0000  0.0000  0.0000 </r>
       </set>
       <set comment="band 4">
        <r>  0.0000  0.0000  0.0000  0.0000  0.0000  0.9878  0.0000  0.0030  0.0000 </r>
        <r>  0.0000  0.0000  0.0000  0.0000  0.0000  0.0000  0.0000  0.0000  0.0000 </r>
       </set>
       <set comment="band 5">
        <r>  0.0000  0.0000  0.0000  0.0000  0.0000  0.0030  0.0000  0.9884  0.0000 </r>
        <r>  0.0000  0.0000  0.0000  0.0000  0.0000  0.0000  0.0000  0.0000  0.0000 </r>
       </set>
       <set comment="band 6">
        <r>  0.0003  0.0098  0.0000  0.0009  0.0000  0.0000  0.0071  0.0000  0.0015 </r>
        <r>  0.6764  0.0000  0.0000  0.0001  0.0000  0.0000  0.0000  0.0000  0.0000 </r>
       </set>
       <set comment="band 7">
        <r>  0.5783  0.0002  0.0000  0.0013  0.0001  0.0000  0.0002  0.0000  0.0005 </r>
        <r>  0.0002  0.0451  0.0000  0.0068  0.0000  0.0000  0.0043  0.0000  0.0009 </r>
       </set>
       <set comment="band 8">
        <r>  0.0000  0.0000  0.1509  0.0000  0.0000  0.0022  0.0000  0.0001  0.0000 </r>
        <r>  0.0000  0.0000  0.2458  0.0000  0.0000  0.0010  0.0000  0.0001  0.0000 </r>
       </set>
       <set comment="band 9">
        <r>  0.0117  0.0001  0.0000  0.1483  0.0024  0.0000  0.0002  0.0000  0.0009 </r>
        <r>  0.0019  0.0030  0.0000  0.2486  0.0012  0.0000  0.0003  0.0000  0.0003 </r>
       </set>
       <set comment="band 10">
        <r>  0.1159  0.0334  0.0000  0.0005  0.0005  0.0000  0.0064  0.0000  0.0145 </r>
        <r>  0.0046  0.4003  0.0000  0.0000  0.0002  0.0000  0.0048  0.0000  0.0000 </r>
       </set>
       <set comment="band 11">
        <r>  0.0083  0.4161  0.0000  0.0004  0.0000  0.0000  0.0000  0.0000  0.0040 </r>
        <r>  0.0450  0.0395  0.0000  0.0001  0.0007  0.0000  0.0040  0.0000  0.0224 </r>
       </set>
       <set comment="band 12">
        <r>  0.0029  0.0038  0.0000  0.0543  0.0326  0.0000  0.0008  0.0000  0.0010 </r>
        <r>  0.0007  0.0018  0.0000  0.2035  0.0627  0.0000  0.0000  0.0000  0.0020 </r>
       </set>
       <set comment="band 13">
        <r>  0.0000  0.0000  0.0870  0.0000  0.0000  0.0216  0.0000  0.0000  0.0000 </r>
        <r>  0.0000  0.0000  0.2629  0.0000  0.0000  0.0572  0.0000  0.0006  0.0000 </r>
       </set>
       <set comment="band 14">
        <r>  0.0042  0.0012  0.0000  0.3309  0.0459  0.0000  0.0006  0.0000  0.0027 </r>
        <r>  0.0060  0.0003  0.0000  0.1137  0.0172  0.0000  0.0010  0.0000  0.0038 </r>
       </set>
       <set comment="band 15">
        <r>  0.0000  0.0000  0.3166  0.0000  0.0000  0.0562  0.0000  0.0001  0.0000 </r>
        <r>  0.0000  0.0000  0.0902  0.0000  0.0000  0.0276  0.0000  0.0010  0.0000 </r>
       </set>
       <set comment="band 16">
        <r>  0.0015  0.0001  0.0404  0.0018  0.0000  0.0004  0.0152  0.0226  0.0015 </r>
        <r>  0.0068  0.0001  0.0047  0.0002  0.0001  0.0069  0.0120  0.1653  0.0066 </r>
       </set>
      </set>
     </set>
    </set>
   </array>
  </projected>
 </calculation>
 <structure name="finalpos" >
  <crystal>
   <varray name="basis" >
    <v>       0.00000000       3.15900007       3.15900007 </v>
    <v>       3.15900007       0.00000000       3.15900007 </v>
    <v>       3.15900007       3.15900007       0.00000000 </v>
   </varray>
   <i name="volume">     63.04910158 </i>
   <varray name="rec_basis" >
    <v>      -0.15827793       0.15827793       0.15827793 </v>
    <v>       0.15827793      -0.15827793       0.15827793 </v>
    <v>       0.15827793       0.15827793      -0.15827793 </v>
   </varray>
  </crystal>
  <varray name="positions" >
   <v>       0.00000000       0.00000000       0.00000000 </v>
   <v>       0.50000000       0.50000000       0.50000000 </v>
  </varray>
 </structure>
</modeling>
