 running on   24 total cores
 distrk:  each k-point on   24 cores,    1 groups
 distr:  one band on    6 cores,    4 groups
 using from now: INCAR     
 vasp.5.3.3 18Dez12 (build Jan 07 2018 16:34:56) complex                        
  
 POSCAR found :  2 types and       2 ions
 LDA part: xc-table for Pade appr. of Perdew
 generate k-points for:   11   11   11
 WARNING: stress and forces are not correct
 POSCAR, INCAR and KPOINTS ok, starting setup
 FFT: planning ...
 WAVECAR not read
 charge-density read from file: unknown                                 
 WARNING: random wavefunctions but no delay for mixing, default for NELMDL
 entering main loop
       N       E                     dE             d eps       ncg     rms          rms(c)
DAV:   1     0.101915212693E+03    0.10192E+03   -0.72083E+03  1840   0.999E+02
DAV:   2     0.442518847889E+00   -0.10147E+03   -0.99949E+02  2008   0.276E+02
DAV:   3    -0.735623034495E+01   -0.77987E+01   -0.77879E+01  2200   0.765E+01
DAV:   4    -0.754070128508E+01   -0.18447E+00   -0.18445E+00  2240   0.125E+01
DAV:   5    -0.754834616821E+01   -0.76449E-02   -0.76448E-02  2496   0.225E+00
DAV:   6    -0.754863872115E+01   -0.29255E-03   -0.29255E-03  2536   0.356E-01
DAV:   7    -0.754864109671E+01   -0.23756E-05   -0.23756E-05  2472   0.314E-02
DAV:   8    -0.754864112680E+01   -0.30087E-07   -0.30105E-07  1752   0.372E-03
   1 F= -.75486411E+01 E0= -.75486411E+01  d E =0.000000E+00
