    2    2    1    1
  0.3152455E+02  0.4467501E-09  0.4467501E-09  0.4467501E-09  0.5000000E-15
 1.00000000000000005E-4
  CAR 
 unknown system                          
     20    120     16
 
  0.0000000E+00  0.0000000E+00  0.0000000E+00  0.8333333E-02
    1      -15.015423
    2      -15.015423
    3      -15.011262
    4      -15.011252
    5      -15.011252
    6       -5.886970
    7        2.149888
    8        4.736436
    9        4.736436
   10        4.736443
   11       10.192609
   12       10.192609
   13       10.192635
   14       11.625866
   15       11.625876
   16       11.625876
 
  0.2631579E-01  0.0000000E+00  0.2631579E-01  0.8333333E-02
    1      -15.015636
    2      -15.015505
    3      -15.011299
    4      -15.011291
    5      -15.011281
    6       -5.879222
    7        2.100358
    8        4.721660
    9        4.721664
   10        4.805760
   11       10.046880
   12       10.192685
   13       10.192702
   14       11.571902
   15       11.668484
   16       11.668490
 
  0.5263158E-01  0.0000000E+00  0.5263158E-01  0.8333333E-02
    1      -15.015928
    2      -15.015413
    3      -15.011359
    4      -15.011098
    5      -15.011092
    6       -5.855938
    7        1.966535
    8        4.678272
    9        4.678276
   10        4.997519
   11        9.671829
   12       10.195665
   13       10.195682
   14       11.428987
   15       11.792637
   16       11.792643
 
  0.7894737E-01  0.0000000E+00  0.7894737E-01  0.8333333E-02
    1      -15.016415
    2      -15.015258
    3      -15.011485
    4      -15.010771
    5      -15.010765
    6       -5.817320
    7        1.779286
    8        4.608909
    9        4.608913
   10        5.275469
   11        9.176732
   12       10.207555
   13       10.207571
   14       11.233608
   15       11.989287
   16       11.989291
 
  0.1052632E+00  0.0000000E+00  0.1052632E+00  0.8333333E-02
    1      -15.017276
    2      -15.015048
    3      -15.011659
    4      -15.010333
    5      -15.010327
    6       -5.763758
    7        1.566485
    8        4.517541
    9        4.517545
   10        5.597992
   11        8.645951
   12       10.234135
   13       10.234151
   14       11.014730
   15       12.248119
   16       12.248122
 
  0.1315789E+00  0.0000000E+00  0.1315789E+00  0.8333333E-02
    1      -15.018345
    2      -15.014812
    3      -15.011930
    4      -15.010062
    5      -15.010056
    6       -5.695709
    7        1.347141
    8        4.408899
    9        4.408903
   10        5.908778
   11        8.154461
   12       10.278996
   13       10.279010
   14       10.789656
   15       12.559940
   16       12.559942
 
  0.1578947E+00  0.0000000E+00  0.1578947E+00  0.8333333E-02
    1      -15.019335
    2      -15.014597
    3      -15.012267
    4      -15.009536
    5      -15.009530
    6       -5.613866
    7        1.133079
    8        4.287961
    9        4.287965
   10        6.090834
   11        7.826906
   12       10.343607
   13       10.343621
   14       10.568239
   15       12.917289
   16       12.917291
 
  0.1842105E+00  0.0000000E+00  0.1842105E+00  0.8333333E-02
    1      -15.020320
    2      -15.014182
    3      -15.012506
    4      -15.008473
    5      -15.008467
    6       -5.519220
    7        0.931702
    8        4.159543
    9        4.159547
   10        5.971629
   11        7.838937
   12       10.356110
   13       10.427645
   14       10.427659
   15       13.314356
   16       13.314358
 
  0.2105263E+00  0.0000000E+00  0.2105263E+00  0.8333333E-02
    1      -15.021561
    2      -15.013823
    3      -15.012802
    4      -15.007652
    5      -15.007646
    6       -5.413040
    7        0.747870
    8        4.028045
    9        4.028049
   10        5.587079
   11        8.155651
   12       10.156439
   13       10.529622
   14       10.529636
   15       13.745791
   16       13.745870
 
  0.2368421E+00  0.0000000E+00  0.2368421E+00  0.8333333E-02
    1      -15.022900
    2      -15.013451
    3      -15.013113
    4      -15.006797
    5      -15.006791
    6       -5.296950
    7        0.585060
    8        3.897370
    9        3.897374
   10        5.097798
   11        8.616481
   12        9.971240
   13       10.647341
   14       10.647355
   15       14.207572
   16       14.208943
 
  0.2631579E+00  0.0000000E+00  0.2631579E+00  0.8333333E-02
    1      -15.024126
    2      -15.013354
    3      -15.012951
    4      -15.005659
    5      -15.005653
    6       -5.173086
    7        0.446051
    8        3.770883
    9        3.770887
   10        4.582257
   11        9.141984
   12        9.801793
   13       10.777965
   14       10.777980
   15       14.493002
   16       14.696070
 
  0.2894737E+00  0.0000000E+00  0.2894737E+00  0.8333333E-02
    1      -15.025635
    2      -15.013970
    3      -15.012794
    4      -15.004907
    5      -15.004901
    6       -5.044136
    7        0.333210
    8        3.651377
    9        3.651381
   10        4.070146
   11        9.648858
   12        9.700499
   13       10.917965
   14       10.917980
   15       14.651858
   16       15.206935
 
  0.3157895E+00  0.0000000E+00  0.3157895E+00  0.8333333E-02
    1      -15.027005
    2      -15.014260
    3      -15.012401
    4      -15.003981
    5      -15.003975
    6       -4.913336
    7        0.248771
    8        3.541201
    9        3.541204
   10        3.575135
   11        9.513177
   12       10.275144
   13       11.063289
   14       11.063305
   15       14.822315
   16       15.676045
 
  0.3421053E+00  0.0000000E+00  0.3421053E+00  0.8333333E-02
    1      -15.028605
    2      -15.014532
    3      -15.012065
    4      -15.003253
    5      -15.003247
    6       -4.784726
    7        0.194789
    8        3.105355
    9        3.442291
   10        3.442295
   11        9.395053
   12       10.852757
   13       11.209092
   14       11.209108
   15       15.001750
   16       15.904821
 
  0.3684211E+00  0.0000000E+00  0.3684211E+00  0.8333333E-02
    1      -15.029620
    2      -15.014889
    3      -15.011781
    4      -15.002659
    5      -15.002653
    6       -4.662868
    7        0.173064
    8        2.667279
    9        3.356218
   10        3.356222
   11        9.294759
   12       11.349712
   13       11.349730
   14       11.419290
   15       15.186665
   16       16.154122
 
  0.3947368E+00  0.0000000E+00  0.3947368E+00  0.8333333E-02
    1      -15.030661
    2      -15.015098
    3      -15.011522
    4      -15.002036
    5      -15.002030
    6       -4.552843
    7        0.184259
    8        2.267495
    9        3.284227
   10        3.284231
   11        9.212498
   12       11.478879
   13       11.478897
   14       11.956609
   15       15.371284
   16       16.422023
 
  0.4210526E+00  0.0000000E+00  0.4210526E+00  0.8333333E-02
    1      -15.031496
    2      -15.015137
    3      -15.011313
    4      -15.001501
    5      -15.001495
    6       -4.459960
    7        0.226639
    8        1.914422
    9        3.227278
   10        3.227281
   11        9.148405
   12       11.589709
   13       11.589728
   14       12.439639
   15       15.546287
   16       16.705814
 
  0.4473684E+00  0.0000000E+00  0.4473684E+00  0.8333333E-02
    1      -15.032031
    2      -15.015253
    3      -15.011160
    4      -15.001069
    5      -15.001063
    6       -4.389285
    7        0.292628
    8        1.621625
    9        3.186102
   10        3.186105
   11        9.102560
   12       11.675256
   13       11.675276
   14       12.834250
   15       15.696982
   16       16.996690
 
  0.4736842E+00  0.0000000E+00  0.4736842E+00  0.8333333E-02
    1      -15.032336
    2      -15.015299
    3      -15.011063
    4      -15.000756
    5      -15.000749
    6       -4.345003
    7        0.361456
    8        1.414621
    9        3.161202
   10        3.161205
   11        9.075032
   12       11.729436
   13       11.729456
   14       13.098239
   15       15.802594
   16       17.269172
 
  0.5000000E+00  0.0000000E+00  0.5000000E+00  0.8333333E-02
    1      -15.032468
    2      -15.015324
    3      -15.011029
    4      -15.000677
    5      -15.000671
    6       -4.329911
    7        0.393453
    8        1.336193
    9        3.152874
   10        3.152877
   11        9.065852
   12       11.748004
   13       11.748025
   14       13.191956
   15       15.841182
   16       17.417307
 
  0.5000000E+00  0.0000000E+00  0.5000000E+00  0.8333333E-02
    1      -15.032468
    2      -15.015324
    3      -15.011029
    4      -15.000677
    5      -15.000671
    6       -4.329911
    7        0.393453
    8        1.336193
    9        3.152874
   10        3.152877
   11        9.065852
   12       11.748004
   13       11.748025
   14       13.191956
   15       15.841182
   16       17.419430
 
  0.5065789E+00  0.1315789E-01  0.5065789E+00  0.8333333E-02
    1      -15.032455
    2      -15.015313
    3      -15.011043
    4      -15.000687
    5      -15.000676
    6       -4.329630
    7        0.388994
    8        1.337306
    9        3.154266
   10        3.157121
   11        9.070383
   12       11.739254
   13       11.742612
   14       13.189326
   15       15.851750
   16       17.375389
 
  0.5131579E+00  0.2631579E-01  0.5131579E+00  0.8333333E-02
    1      -15.032412
    2      -15.015279
    3      -15.011080
    4      -15.000713
    5      -15.000689
    6       -4.328793
    7        0.375732
    8        1.340642
    9        3.158444
   10        3.169753
   11        9.083953
   12       11.713280
   13       11.726481
   14       13.181457
   15       15.883176
   16       17.275525
 
  0.5197368E+00  0.3947368E-01  0.5197368E+00  0.8333333E-02
    1      -15.032341
    2      -15.015221
    3      -15.011142
    4      -15.000756
    5      -15.000711
    6       -4.327418
    7        0.354002
    8        1.346201
    9        3.165403
   10        3.190479
   11        9.106493
   12       11.670875
   13       11.699943
   14       13.168394
   15       15.934662
   16       17.150000
 
  0.5263158E+00  0.5263158E-01  0.5263158E+00  0.8333333E-02
    1      -15.032303
    2      -15.015305
    3      -15.011288
    4      -15.000857
    5      -15.000743
    6       -4.325553
    7        0.324332
    8        1.353978
    9        3.175138
   10        3.218837
   11        9.137874
   12       11.613214
   13       11.663435
   14       13.150203
   15       16.004991
   16       17.012866
 
  0.5328947E+00  0.6578947E-01  0.5328947E+00  0.8333333E-02
    1      -15.032196
    2      -15.015213
    3      -15.011395
    4      -15.001013
    5      -15.000782
    6       -4.323199
    7        0.287409
    8        1.363965
    9        3.187642
   10        3.254260
   11        9.177933
   12       11.541847
   13       11.617764
   14       13.126993
   15       16.092662
   16       16.872497
 
  0.5394737E+00  0.7894737E-01  0.5394737E+00  0.8333333E-02
    1      -15.032043
    2      -15.015086
    3      -15.011525
    4      -15.001105
    5      -15.000829
    6       -4.320426
    7        0.244020
    8        1.376162
    9        3.202907
   10        3.296092
   11        9.226419
   12       11.458380
   13       11.563721
   14       13.098888
   15       16.196031
   16       16.726372
 
  0.5460526E+00  0.9210526E-01  0.5460526E+00  0.8333333E-02
    1      -15.031825
    2      -15.014800
    3      -15.011663
    4      -15.001181
    5      -15.000884
    6       -4.317299
    7        0.195014
    8        1.390559
    9        3.220923
   10        3.343643
   11        9.283040
   12       11.364467
   13       11.502273
   14       13.066042
   15       16.313451
   16       16.581887
 
  0.5526316E+00  0.1052632E+00  0.5526316E+00  0.8333333E-02
    1      -15.031646
    2      -15.014630
    3      -15.011906
    4      -15.001303
    5      -15.000948
    6       -4.313894
    7        0.141269
    8        1.407147
    9        3.241664
   10        3.396241
   11        9.347264
   12       11.261688
   13       11.434532
   14       13.028618
   15       16.437825
   16       16.444010
 
  0.5592105E+00  0.1184211E+00  0.5592105E+00  0.8333333E-02
    1      -15.031420
    2      -15.014435
    3      -15.012098
    4      -15.001441
    5      -15.001019
    6       -4.310297
    7        0.083657
    8        1.425915
    9        3.265131
   10        3.453239
   11        9.418530
   12       11.151527
   13       11.361768
   14       12.986816
   15       16.293590
   16       16.592016
 
  0.5657895E+00  0.1315789E+00  0.5657895E+00  0.8333333E-02
    1      -15.031200
    2      -15.014226
    3      -15.012381
    4      -15.001594
    5      -15.001099
    6       -4.306610
    7        0.023022
    8        1.446850
    9        3.291296
   10        3.514038
   11        9.495990
   12       11.035285
   13       11.285445
   14       12.940849
   15       16.150955
   16       16.507091
 
  0.5723684E+00  0.1447368E+00  0.5723684E+00  0.8333333E-02
    1      -15.030990
    2      -15.014095
    3      -15.012660
    4      -15.001761
    5      -15.001193
    6       -4.302954
    7       -0.039826
    8        1.469938
    9        3.320142
   10        3.578111
   11        9.578425
   12       10.914121
   13       11.207341
   14       12.890943
   15       16.008911
   16       16.363014
 
  0.5789474E+00  0.1578947E+00  0.5789474E+00  0.8333333E-02
    1      -15.030683
    2      -15.013742
    3      -15.012791
    4      -15.001755
    5      -15.001267
    6       -4.299418
    7       -0.104119
    8        1.495166
    9        3.351645
   10        3.644990
   11        9.664071
   12       10.789096
   13       11.129843
   14       12.837350
   15       15.868395
   16       16.219605
 
  0.5855263E+00  0.1710526E+00  0.5855263E+00  0.8333333E-02
    1      -15.030382
    2      -15.013471
    3      -15.013047
    4      -15.001945
    5      -15.001371
    6       -4.296187
    7       -0.169136
    8        1.522516
    9        3.385775
   10        3.714268
   11        9.750177
   12       10.661068
   13       11.056081
   14       12.780314
   15       15.729172
   16       16.078784
 
  0.5921053E+00  0.1842105E+00  0.5921053E+00  0.8333333E-02
    1      -15.030120
    2      -15.013317
    3      -15.013187
    4      -15.002199
    5      -15.001482
    6       -4.293399
    7       -0.234196
    8        1.551968
    9        3.422504
   10        3.785619
   11        9.832490
   12       10.530811
   13       10.990739
   14       12.720090
   15       15.591363
   16       15.939952
 
  0.5986842E+00  0.1973684E+00  0.5986842E+00  0.8333333E-02
    1      -15.029789
    2      -15.013598
    3      -15.012888
    4      -15.002411
    5      -15.001600
    6       -4.291207
    7       -0.298662
    8        1.583505
    9        3.461796
   10        3.858767
   11        9.904507
   12       10.398986
   13       10.940668
   14       12.656976
   15       15.455049
   16       15.803117
 
  0.6052632E+00  0.2105263E+00  0.6052632E+00  0.8333333E-02
    1      -15.029447
    2      -15.013890
    3      -15.012576
    4      -15.002634
    5      -15.001726
    6       -4.289790
    7       -0.361937
    8        1.617102
    9        3.503616
   10        3.933496
   11        9.957250
   12       10.266167
   13       10.915120
   14       12.591232
   15       15.320254
   16       15.668302
 
  0.6118421E+00  0.2236842E+00  0.6118421E+00  0.8333333E-02
    1      -15.029094
    2      -15.014189
    3      -15.012252
    4      -15.002867
    5      -15.001858
    6       -4.289327
    7       -0.423453
    8        1.652736
    9        3.547920
   10        4.009637
   11        9.981298
   12       10.132854
   13       10.923738
   14       12.523130
   15       15.187033
   16       15.535542
 
  0.6184211E+00  0.2368421E+00  0.6184211E+00  0.8333333E-02
    1      -15.028731
    2      -15.014495
    3      -15.011918
    4      -15.003108
    5      -15.001997
    6       -4.290005
    7       -0.482683
    8        1.690381
    9        3.594660
   10        4.087055
   11        9.971731
   12        9.999485
   13       10.971613
   14       12.452942
   15       15.055411
   16       15.404859
 
  0.6250000E+00  0.2500000E+00  0.6250000E+00  0.8333333E-02
    1      -15.028315
    2      -15.014685
    3      -15.011480
    4      -15.003336
    5      -15.002095
    6       -4.292005
    7       -0.539126
    8        1.730010
    9        3.643785
   10        4.165658
   11        9.866465
   12        9.931277
   13       11.056220
   14       12.380948
   15       14.925443
   16       15.276325
 
  0.3750000E+00  0.3750000E+00  0.7500000E+00  0.8333333E-02
    1      -15.028315
    2      -15.014685
    3      -15.011480
    4      -15.003336
    5      -15.002095
    6       -4.292005
    7       -0.539126
    8        1.730010
    9        3.643785
   10        4.165658
   11        9.866465
   12        9.931277
   13       11.056220
   14       12.380948
   15       14.925443
   16       15.276325
 
  0.3552632E+00  0.3552632E+00  0.7105263E+00  0.8333333E-02
    1      -15.027159
    2      -15.015625
    3      -15.010332
    4      -15.004118
    5      -15.002570
    6       -4.307943
    7       -0.687277
    8        1.860482
    9        3.804844
   10        4.407982
   11        9.472686
   12        9.696352
   13       11.458590
   14       12.156764
   15       14.545607
   16       14.903365
 
  0.3355263E+00  0.3355263E+00  0.6710526E+00  0.8333333E-02
    1      -15.026033
    2      -15.016638
    3      -15.009238
    4      -15.004941
    5      -15.003099
    6       -4.342422
    7       -0.795568
    8        2.007590
    9        3.984753
   10        4.659667
   11        9.092780
   12        9.391255
   13       11.925573
   14       11.983663
   15       14.181536
   16       14.549893
 
  0.3157895E+00  0.3157895E+00  0.6315789E+00  0.8333333E-02
    1      -15.024873
    2      -15.017491
    3      -15.008244
    4      -15.005766
    5      -15.003671
    6       -4.398830
    7       -0.856267
    8        2.170194
    9        4.180659
   10        4.920900
   11        8.733506
   12        9.067513
   13       11.693569
   14       12.577766
   15       13.834102
   16       14.216190
 
  0.2960526E+00  0.2960526E+00  0.5921053E+00  0.8333333E-02
    1      -15.023801
    2      -15.018464
    3      -15.007468
    4      -15.006737
    5      -15.004370
    6       -4.478220
    7       -0.865271
    8        2.346909
    9        4.388262
   10        5.192025
   11        8.401670
   12        8.742414
   13       11.466245
   14       13.218913
   15       13.504183
   16       13.902385
 
  0.2763158E+00  0.2763158E+00  0.5526316E+00  0.8333333E-02
    1      -15.022622
    2      -15.018972
    3      -15.007580
    4      -15.006817
    5      -15.004945
    6       -4.578837
    7       -0.822141
    8        2.536084
    9        4.601156
   10        5.472890
   11        8.105476
   12        8.424020
   13       11.248449
   14       13.192901
   15       13.608809
   16       13.889930
 
  0.2565789E+00  0.2565789E+00  0.5131579E+00  0.8333333E-02
    1      -15.021619
    2      -15.019427
    3      -15.008363
    4      -15.006332
    5      -15.005684
    6       -4.696658
    7       -0.729542
    8        2.735746
    9        4.809417
   10        5.761871
   11        7.855857
   12        8.117930
   13       11.044311
   14       12.901413
   15       13.335258
   16       14.556332
 
  0.2368421E+00  0.2368421E+00  0.4736842E+00  0.8333333E-02
    1      -15.020630
    2      -15.019573
    3      -15.009014
    4      -15.006346
    5      -15.005994
    6       -4.826327
    7       -0.592040
    8        2.943548
    9        4.998184
   10        6.053454
   11        7.668304
   12        7.831583
   13       10.857447
   14       12.630984
   15       13.082109
   16       15.049992
 
  0.2171053E+00  0.2171053E+00  0.4342105E+00  0.8333333E-02
    1      -15.019741
    2      -15.019687
    3      -15.009641
    4      -15.007125
    5      -15.005992
    6       -4.962298
    7       -0.415070
    8        3.156713
    9        5.147467
   10        6.330256
   11        7.562896
   12        7.582855
   13       10.690988
   14       12.383059
   15       12.849225
   16       15.070396
 
  0.1973684E+00  0.1973684E+00  0.3947368E+00  0.8333333E-02
    1      -15.019563
    2      -15.018908
    3      -15.009969
    4      -15.007634
    5      -15.006145
    6       -5.099344
    7       -0.204244
    8        3.372001
    9        5.237342
   10        6.533881
   11        7.429570
   12        7.559347
   13       10.547587
   14       12.159412
   15       12.636678
   16       14.914959
 
  0.1776316E+00  0.1776316E+00  0.3552632E+00  0.8333333E-02
    1      -15.019435
    2      -15.018111
    3      -15.010454
    4      -15.008283
    5      -15.006616
    6       -5.233037
    7        0.034924
    8        3.585682
    9        5.259628
   10        6.544402
   11        7.490060
   12        7.665065
   13       10.429105
   14       11.961977
   15       12.444301
   16       14.608804
 
  0.1578947E+00  0.1578947E+00  0.3157895E+00  0.8333333E-02
    1      -15.019057
    2      -15.017483
    3      -15.010733
    4      -15.008869
    5      -15.007210
    6       -5.359780
    7        0.297041
    8        3.793613
    9        5.224705
   10        6.376511
   11        7.747226
   12        7.868350
   13       10.336645
   14       11.793444
   15       12.272375
   16       14.053172
 
  0.1381579E+00  0.1381579E+00  0.2763158E+00  0.8333333E-02
    1      -15.018671
    2      -15.016953
    3      -15.011093
    4      -15.009462
    5      -15.007943
    6       -5.476699
    7        0.576486
    8        3.991267
    9        5.153567
   10        6.141331
   11        8.086818
   12        8.146002
   13       10.269917
   14       11.656985
   15       12.120689
   16       13.529033
 
  0.1184211E+00  0.1184211E+00  0.2368421E+00  0.8333333E-02
    1      -15.018181
    2      -15.016533
    3      -15.011482
    4      -15.009980
    5      -15.008765
    6       -5.581549
    7        0.867011
    8        4.173966
    9        5.066257
   10        5.885333
   11        8.458659
   12        8.474409
   13       10.226918
   14       11.556457
   15       11.989323
   16       13.057880
 
  0.9868421E-01  0.9868421E-01  0.1973684E+00  0.8333333E-02
    1      -15.017575
    2      -15.016214
    3      -15.011541
    4      -15.010377
    5      -15.009676
    6       -5.672665
    7        1.160956
    8        4.337073
    9        4.977261
   10        5.624578
   11        8.833303
   12        8.842360
   13       10.203547
   14       11.495937
   15       11.878222
   16       12.646116
 
  0.7894737E-01  0.7894737E-01  0.1578947E+00  0.8333333E-02
    1      -15.016857
    2      -15.015869
    3      -15.011462
    4      -15.010719
    5      -15.010312
    6       -5.748718
    7        1.448224
    8        4.476354
    9        4.896005
   10        5.369098
   11        9.203655
   12        9.222785
   13       10.193834
   14       11.478001
   15       11.787346
   16       12.298391
 
  0.5921053E-01  0.5921053E-01  0.1184211E+00  0.8333333E-02
    1      -15.016220
    2      -15.015676
    3      -15.011323
    4      -15.010981
    5      -15.010668
    6       -5.808730
    7        1.714490
    8        4.588254
    9        4.828369
   10        5.130982
   11        9.563126
   12        9.581509
   13       10.191530
   14       11.500181
   15       11.716684
   16       12.017941
 
  0.3947368E-01  0.3947368E-01  0.7894737E-01  0.8333333E-02
    1      -15.015877
    2      -15.015613
    3      -15.011347
    4      -15.011191
    5      -15.011055
    6       -5.852081
    7        1.939020
    8        4.670013
    9        4.777931
   10        4.928523
   11        9.879960
   12        9.891145
   13       10.191844
   14       11.550195
   15       11.666221
   16       11.807722
 
  0.1973684E-01  0.1973684E-01  0.3947368E-01  0.8333333E-02
    1      -15.015665
    2      -15.015597
    3      -15.011359
    4      -15.011316
    5      -15.011286
    6       -5.878255
    7        2.093827
    8        4.719751
    9        4.746901
   10        4.787717
   11       10.107728
   12       10.110996
   13       10.192392
   14       11.602845
   15       11.635948
   16       11.673277
 
  0.2081668E-16  0.2081668E-16  0.4163336E-16  0.8333333E-02
    1      -15.015423
    2      -15.015423
    3      -15.011262
    4      -15.011252
    5      -15.011252
    6       -5.886970
    7        2.149888
    8        4.736436
    9        4.736436
   10        4.736443
   11       10.192609
   12       10.192609
   13       10.192635
   14       11.625866
   15       11.625876
   16       11.625876
 
  0.0000000E+00  0.0000000E+00  0.0000000E+00  0.8333333E-02
    1      -15.015423
    2      -15.015423
    3      -15.011262
    4      -15.011252
    5      -15.011252
    6       -5.886970
    7        2.149888
    8        4.736436
    9        4.736436
   10        4.736443
   11       10.192609
   12       10.192609
   13       10.192635
   14       11.625866
   15       11.625876
   16       11.625876
 
  0.2631579E-01  0.2631579E-01  0.2631579E-01  0.8333333E-02
    1      -15.015619
    2      -15.015619
    3      -15.011358
    4      -15.011323
    5      -15.011323
    6       -5.881168
    7        2.112151
    8        4.737388
    9        4.737388
   10        4.764921
   11       10.154248
   12       10.154248
   13       10.156438
   14       11.618267
   15       11.640992
   16       11.640992
 
  0.5263158E-01  0.5263158E-01  0.5263158E-01  0.8333333E-02
    1      -15.015692
    2      -15.015692
    3      -15.011329
    4      -15.011215
    5      -15.011215
    6       -5.863703
    7        2.004403
    8        4.740294
    9        4.740294
   10        4.844887
   11       10.045995
   12       10.045995
   13       10.053843
   14       11.599395
   15       11.685457
   16       11.685457
 
  0.7894737E-01  0.7894737E-01  0.7894737E-01  0.8333333E-02
    1      -15.015824
    2      -15.015824
    3      -15.011285
    4      -15.011027
    5      -15.011027
    6       -5.834703
    7        1.839810
    8        4.745270
    9        4.745270
   10        4.963210
   11        9.883750
   12        9.883750
   13        9.899183
   14       11.578621
   15       11.757396
   16       11.757396
 
  0.1052632E+00  0.1052632E+00  0.1052632E+00  0.8333333E-02
    1      -15.016048
    2      -15.016048
    3      -15.011464
    4      -15.010779
    5      -15.010779
    6       -5.794404
    7        1.633321
    8        4.752503
    9        4.752503
   10        5.105187
   11        9.685052
   12        9.685052
   13        9.708843
   14       11.566741
   15       11.855338
   16       11.855338
 
  0.1315789E+00  0.1315789E+00  0.1315789E+00  0.8333333E-02
    1      -15.016308
    2      -15.016308
    3      -15.011378
    4      -15.010436
    5      -15.010436
    6       -5.743110
    7        1.397897
    8        4.762234
    9        4.762234
   10        5.258326
   11        9.464572
   12        9.464572
   13        9.496883
   14       11.573746
   15       11.978425
   16       11.978425
 
  0.1578947E+00  0.1578947E+00  0.1578947E+00  0.8333333E-02
    1      -15.016749
    2      -15.016749
    3      -15.011318
    4      -15.010039
    5      -15.010039
    6       -5.681228
    7        1.143599
    8        4.774695
    9        4.774695
   10        5.413390
   11        9.233174
   12        9.233174
   13        9.273787
   14       11.607285
   15       12.126083
   16       12.126083
 
  0.1842105E+00  0.1842105E+00  0.1842105E+00  0.8333333E-02
    1      -15.017270
    2      -15.017270
    3      -15.011142
    4      -15.009721
    5      -15.009721
    6       -5.609330
    7        0.878057
    8        4.790127
    9        4.790127
   10        5.564224
   11        8.998664
   12        8.998664
   13        9.046973
   14       11.672872
   15       12.297789
   16       12.297790
 
  0.2105263E+00  0.2105263E+00  0.2105263E+00  0.8333333E-02
    1      -15.017687
    2      -15.017687
    3      -15.010862
    4      -15.009152
    5      -15.009152
    6       -5.528174
    7        0.607284
    8        4.808739
    9        4.808740
   10        5.707154
   11        8.766624
   12        8.766624
   13        8.821504
   14       11.774127
   15       12.493036
   16       12.493037
 
  0.2368421E+00  0.2368421E+00  0.2368421E+00  0.8333333E-02
    1      -15.018166
    2      -15.018166
    3      -15.010696
    4      -15.008460
    5      -15.008460
    6       -5.438707
    7        0.336058
    8        4.830557
    9        4.830557
   10        5.840397
   11        8.541152
   12        8.541152
   13        8.600800
   14       11.912683
   15       12.711198
   16       12.711198
 
  0.2631579E+00  0.2631579E+00  0.2631579E+00  0.8333333E-02
    1      -15.018611
    2      -15.018611
    3      -15.010704
    4      -15.007870
    5      -15.007870
    6       -5.342175
    7        0.068625
    8        4.855497
    9        4.855497
   10        5.963695
   11        8.325477
   12        8.325477
   13        8.387165
   14       12.088711
   15       12.951377
   16       12.951377
 
  0.2894737E+00  0.2894737E+00  0.2894737E+00  0.8333333E-02
    1      -15.019056
    2      -15.019056
    3      -15.010565
    4      -15.007279
    5      -15.007279
    6       -5.240209
    7       -0.191092
    8        4.883247
    9        4.883247
   10        6.077958
   11        8.122282
   12        8.122282