   2   2   1   0
  0.3152455E+02  0.4467501E-09  0.4467501E-09  0.4467501E-09  0.5000000E-15
  1.000000000000000E-004
  CAR 
 unknown system                          
     19.41703817    -17.03244012  301      6.90651411      1.00000000
    -17.032  0.0000E+00  0.0000E+00
    -16.911  0.0000E+00  0.0000E+00
    -16.789  0.0000E+00  0.0000E+00
    -16.668  0.0000E+00  0.0000E+00
    -16.546  0.0000E+00  0.0000E+00
    -16.425  0.0000E+00  0.0000E+00
    -16.303  0.0000E+00  0.0000E+00
    -16.182  0.0000E+00  0.0000E+00
    -16.060  0.0000E+00  0.0000E+00
    -15.939  0.0000E+00  0.0000E+00
    -15.817  0.0000E+00  0.0000E+00
    -15.696  0.0000E+00  0.0000E+00
    -15.574  0.0000E+00  0.0000E+00
    -15.453  0.0000E+00  0.0000E+00
    -15.331  0.0000E+00  0.0000E+00
    -15.210  0.0000E+00  0.0000E+00
    -15.088  0.0000E+00  0.0000E+00
    -14.967  0.0000E+00  0.1000E+02
    -14.845  0.0000E+00  0.1000E+02
    -14.724  0.0000E+00  0.1000E+02
    -14.602  0.0000E+00  0.1000E+02
    -14.481  0.0000E+00  0.1000E+02
    -14.359  0.0000E+00  0.1000E+02
    -14.238  0.0000E+00  0.1000E+02
    -14.116  0.0000E+00  0.1000E+02
    -13.995  0.0000E+00  0.1000E+02
    -13.873  0.0000E+00  0.1000E+02
    -13.752  0.0000E+00  0.1000E+02
    -13.630  0.0000E+00  0.1000E+02
    -13.509  0.0000E+00  0.1000E+02
    -13.387  0.0000E+00  0.1000E+02
    -13.266  0.0000E+00  0.1000E+02
    -13.144  0.0000E+00  0.1000E+02
    -13.023  0.0000E+00  0.1000E+02
    -12.901  0.0000E+00  0.1000E+02
    -12.780  0.0000E+00  0.1000E+02
    -12.659  0.0000E+00  0.1000E+02
    -12.537  0.0000E+00  0.1000E+02
    -12.416  0.0000E+00  0.1000E+02
    -12.294  0.0000E+00  0.1000E+02
    -12.173  0.0000E+00  0.1000E+02
    -12.051  0.0000E+00  0.1000E+02
    -11.930  0.0000E+00  0.1000E+02
    -11.808  0.0000E+00  0.1000E+02
    -11.687  0.0000E+00  0.1000E+02
    -11.565  0.0000E+00  0.1000E+02
    -11.444  0.0000E+00  0.1000E+02
    -11.322  0.0000E+00  0.1000E+02
    -11.201  0.0000E+00  0.1000E+02
    -11.079  0.0000E+00  0.1000E+02
    -10.958  0.0000E+00  0.1000E+02
    -10.836  0.0000E+00  0.1000E+02
    -10.715  0.0000E+00  0.1000E+02
    -10.593  0.0000E+00  0.1000E+02
    -10.472  0.0000E+00  0.1000E+02
    -10.350  0.0000E+00  0.1000E+02
    -10.229  0.0000E+00  0.1000E+02
    -10.107  0.0000E+00  0.1000E+02
     -9.986  0.0000E+00  0.1000E+02
     -9.864  0.0000E+00  0.1000E+02
     -9.743  0.0000E+00  0.1000E+02
     -9.621  0.0000E+00  0.1000E+02
     -9.500  0.0000E+00  0.1000E+02
     -9.378  0.0000E+00  0.1000E+02
     -9.257  0.0000E+00  0.1000E+02
     -9.135  0.0000E+00  0.1000E+02
     -9.014  0.0000E+00  0.1000E+02
     -8.892  0.0000E+00  0.1000E+02
     -8.771  0.0000E+00  0.1000E+02
     -8.649  0.0000E+00  0.1000E+02
     -8.528  0.0000E+00  0.1000E+02
     -8.406  0.0000E+00  0.1000E+02
     -8.285  0.0000E+00  0.1000E+02
     -8.163  0.0000E+00  0.1000E+02
     -8.042  0.0000E+00  0.1000E+02
     -7.920  0.0000E+00  0.1000E+02
     -7.799  0.0000E+00  0.1000E+02
     -7.677  0.0000E+00  0.1000E+02
     -7.556  0.0000E+00  0.1000E+02
     -7.434  0.0000E+00  0.1000E+02
     -7.313  0.0000E+00  0.1000E+02
     -7.191  0.0000E+00  0.1000E+02
     -7.070  0.0000E+00  0.1000E+02
     -6.948  0.0000E+00  0.1000E+02
     -6.827  0.0000E+00  0.1000E+02
     -6.705  0.0000E+00  0.1000E+02
     -6.584  0.0000E+00  0.1000E+02
     -6.462  0.0000E+00  0.1000E+02
     -6.341  0.0000E+00  0.1000E+02
     -6.219  0.0000E+00  0.1000E+02
     -6.098  0.0000E+00  0.1000E+02
     -5.976  0.0000E+00  0.1000E+02
     -5.855  0.1708E-01  0.1000E+02
     -5.733  0.2394E+00  0.1002E+02
     -5.612  0.3426E+00  0.1005E+02
     -5.490  0.4656E+00  0.1010E+02
     -5.369  0.5501E+00  0.1016E+02
     -5.247  0.6600E+00  0.1024E+02
     -5.126  0.7815E+00  0.1032E+02
     -5.004  0.9526E+00  0.1043E+02
     -4.883  0.1167E+01  0.1056E+02
     -4.761  0.1449E+01  0.1072E+02
     -4.640  0.2469E+01  0.1093E+02
     -4.518  0.2625E+01  0.1125E+02
     -4.397  0.3259E+01  0.1159E+02
     -4.275  0.6270E+00  0.1199E+02
     -4.154  0.0000E+00  0.1200E+02
     -4.032  0.0000E+00  0.1200E+02
     -3.911  0.0000E+00  0.1200E+02
     -3.789  0.0000E+00  0.1200E+02
     -3.668  0.0000E+00  0.1200E+02
     -3.546  0.0000E+00  0.1200E+02
     -3.425  0.0000E+00  0.1200E+02
     -3.303  0.0000E+00  0.1200E+02
     -3.182  0.0000E+00  0.1200E+02
     -3.060  0.0000E+00  0.1200E+02
     -2.939  0.0000E+00  0.1200E+02
     -2.817  0.0000E+00  0.1200E+02
     -2.696  0.0000E+00  0.1200E+02
     -2.574  0.0000E+00  0.1200E+02
     -2.453  0.0000E+00  0.1200E+02
     -2.331  0.0000E+00  0.1200E+02
     -2.210  0.0000E+00  0.1200E+02
     -2.088  0.0000E+00  0.1200E+02
     -1.967  0.0000E+00  0.1200E+02
     -1.845  0.0000E+00  0.1200E+02
     -1.724  0.0000E+00  0.1200E+02
     -1.602  0.0000E+00  0.1200E+02
     -1.481  0.0000E+00  0.1200E+02
     -1.359  0.6665E-01  0.1200E+02
     -1.238  0.4335E+00  0.1203E+02
     -1.116  0.8106E+00  0.1211E+02
     -0.995  0.1007E+01  0.1222E+02
     -0.873  0.1617E+01  0.1237E+02
     -0.752  0.1920E+01  0.1259E+02
     -0.630  0.2103E+01  0.1284E+02
     -0.509  0.1429E+01  0.1306E+02
     -0.387  0.1220E+01  0.1322E+02
     -0.266  0.1084E+01  0.1336E+02
     -0.144  0.1044E+01  0.1349E+02
     -0.023  0.8895E+00  0.1361E+02
      0.099  0.6215E+00  0.1370E+02
      0.220  0.4419E+00  0.1377E+02
      0.342  0.3325E+00  0.1381E+02
      0.463  0.2775E+00  0.1385E+02
      0.585  0.2045E+00  0.1388E+02
      0.706  0.1645E+00  0.1390E+02
      0.828  0.1443E+00  0.1392E+02
      0.949  0.1276E+00  0.1394E+02
      1.071  0.1116E+00  0.1395E+02
      1.192  0.9623E-01  0.1396E+02
      1.314  0.8149E-01  0.1398E+02
      1.435  0.9252E-01  0.1398E+02
      1.557  0.1753E+00  0.1400E+02
      1.678  0.3786E+00  0.1403E+02
      1.800  0.3732E+00  0.1409E+02
      1.921  0.4540E+00  0.1414E+02
      2.043  0.5781E+00  0.1420E+02
      2.164  0.1066E+01  0.1431E+02
      2.286  0.6685E+00  0.1441E+02
      2.407  0.7402E+00  0.1449E+02
      2.529  0.8407E+00  0.1459E+02
      2.650  0.9116E+00  0.1470E+02
      2.772  0.9992E+00  0.1481E+02
      2.893  0.1272E+01  0.1496E+02
      3.015  0.1365E+01  0.1512E+02
      3.136  0.1539E+01  0.1529E+02
      3.258  0.1797E+01  0.1550E+02
      3.379  0.1637E+01  0.1571E+02
      3.501  0.1687E+01  0.1591E+02
      3.622  0.1680E+01  0.1612E+02
      3.744  0.1696E+01  0.1632E+02
      3.865  0.1725E+01  0.1653E+02
      3.987  0.1750E+01  0.1674E+02
      4.108  0.1763E+01  0.1695E+02
      4.230  0.1854E+01  0.1717E+02
      4.351  0.1788E+01  0.1740E+02
      4.473  0.1705E+01  0.1761E+02
      4.594  0.1800E+01  0.1782E+02
      4.716  0.1982E+01  0.1805E+02
      4.837  0.1663E+01  0.1827E+02
      4.959  0.1446E+01  0.1846E+02
      5.080  0.9467E+00  0.1860E+02
      5.202  0.8084E+00  0.1870E+02
      5.323  0.9085E+00  0.1880E+02
      5.445  0.1115E+01  0.1893E+02
      5.566  0.1380E+01  0.1908E+02
      5.688  0.1829E+01  0.1927E+02
      5.809  0.1755E+01  0.1950E+02
      5.931  0.1282E+01  0.1968E+02
      6.052  0.7857E+00  0.1982E+02
      6.174  0.5669E+00  0.1990E+02
      6.295  0.3628E+00  0.1995E+02
      6.417  0.1610E+00  0.1999E+02
      6.538  0.3341E-01  0.2000E+02
      6.660  0.1268E-01  0.2000E+02
      6.781  0.2441E-02  0.2000E+02
      6.903  0.0000E+00  0.2000E+02
      7.024  0.2536E-02  0.2000E+02
      7.146  0.1742E-01  0.2000E+02
      7.267  0.4739E-01  0.2000E+02
      7.389  0.1415E+00  0.2002E+02
      7.510  0.8229E+00  0.2007E+02
      7.632  0.1638E+01  0.2022E+02
      7.753  0.2254E+01  0.2046E+02
      7.875  0.2122E+01  0.2073E+02
      7.996  0.1794E+01  0.2096E+02
      8.118  0.1655E+01  0.2117E+02
      8.239  0.1491E+01  0.2136E+02
      8.361  0.1313E+01  0.2153E+02
      8.482  0.1238E+01  0.2169E+02
      8.604  0.1219E+01  0.2184E+02
      8.725  0.1218E+01  0.2199E+02
      8.847  0.1229E+01  0.2213E+02
      8.968  0.1254E+01  0.2228E+02
      9.090  0.1308E+01  0.2244E+02
      9.211  0.1422E+01  0.2261E+02
      9.333  0.1644E+01  0.2279E+02
      9.454  0.2142E+01  0.2302E+02
      9.576  0.1934E+01  0.2328E+02
      9.697  0.1593E+01  0.2349E+02
      9.819  0.1537E+01  0.2368E+02
      9.940  0.1549E+01  0.2386E+02
     10.062  0.1619E+01  0.2405E+02
     10.183  0.1557E+01  0.2425E+02
     10.305  0.1287E+01  0.2442E+02
     10.426  0.1405E+01  0.2459E+02
     10.548  0.1351E+01  0.2475E+02
     10.669  0.1206E+01  0.2491E+02
     10.791  0.1537E+01  0.2507E+02
     10.912  0.1412E+01  0.2525E+02
     11.034  0.1469E+01  0.2543E+02
     11.155  0.1718E+01  0.2562E+02
     11.277  0.2037E+01  0.2586E+02
     11.398  0.1709E+01  0.2608E+02
     11.520  0.1874E+01  0.2630E+02
     11.641  0.1662E+01  0.2652E+02
     11.763  0.1188E+01  0.2669E+02
     11.884  0.1038E+01  0.2682E+02
     12.006  0.1150E+01  0.2695E+02
     12.127  0.1247E+01  0.2710E+02
     12.249  0.1316E+01  0.2725E+02
     12.370  0.1353E+01  0.2742E+02
     12.492  0.1426E+01  0.2758E+02
     12.613  0.1359E+01  0.2776E+02
     12.735  0.1387E+01  0.2792E+02
     12.856  0.7677E+00  0.2804E+02
     12.978  0.8531E+00  0.2813E+02
     13.099  0.7882E+00  0.2824E+02
     13.221  0.7492E+00  0.2833E+02
     13.342  0.8836E+00  0.2843E+02
     13.464  0.9754E+00  0.2854E+02
     13.585  0.1022E+01  0.2866E+02
     13.707  0.1015E+01  0.2879E+02
     13.828  0.1009E+01  0.2891E+02
     13.950  0.1030E+01  0.2903E+02
     14.071  0.1006E+01  0.2916E+02
     14.193  0.9863E+00  0.2928E+02
     14.314  0.9801E+00  0.2940E+02
     14.436  0.9918E+00  0.2952E+02
     14.557  0.1050E+01  0.2964E+02
     14.679  0.1143E+01  0.2977E+02
     14.800  0.1671E+01  0.2993E+02
     14.922  0.1827E+01  0.3015E+02
     15.043  0.1576E+01  0.3036E+02
     15.165  0.1280E+01  0.3053E+02
     15.286  0.1213E+01  0.3068E+02
     15.408  0.1335E+01  0.3083E+02
     15.529  0.1155E+01  0.3098E+02
     15.651  0.1162E+01  0.3112E+02
     15.772  0.1006E+01  0.3126E+02
     15.894  0.9484E+00  0.3138E+02
     16.015  0.8690E+00  0.3149E+02
     16.137  0.7641E+00  0.3159E+02
     16.258  0.6791E+00  0.3167E+02
     16.380  0.6280E+00  0.3175E+02
     16.501  0.5551E+00  0.3183E+02
     16.623  0.4387E+00  0.3189E+02
     16.744  0.3291E+00  0.3193E+02
     16.866  0.2438E+00  0.3197E+02
     16.987  0.1089E+00  0.3199E+02
     17.109  0.2991E-01  0.3200E+02
     17.230  0.5522E-02  0.3200E+02
     17.352  0.6770E-03  0.3200E+02
     17.473  0.0000E+00  0.3200E+02
     17.595  0.0000E+00  0.3200E+02
     17.716  0.0000E+00  0.3200E+02
     17.838  0.0000E+00  0.3200E+02
     17.959  0.0000E+00  0.3200E+02
     18.081  0.0000E+00  0.3200E+02
     18.202  0.0000E+00  0.3200E+02
     18.324  0.0000E+00  0.3200E+02
     18.445  0.0000E+00  0.3200E+02
     18.567  0.0000E+00  0.3200E+02
     18.688  0.0000E+00  0.3200E+02
     18.810  0.0000E+00  0.3200E+02
     18.931  0.0000E+00  0.3200E+02
     19.053  0.0000E+00  0.3200E+02
     19.174  0.0000E+00  0.3200E+02
     19.296  0.0000E+00  0.3200E+02
     19.417  0.0000E+00  0.3200E+02
     19.41703817    -17.03244012  301      6.90651411      1.00000000
    -17.032  0.0000E+00  0.0000E+00  0.0000E+00  0.0000E+00  0.0000E+00  0.0000E+00  0.0000E+00  0.0000E+00  0.0000E+00
    -16.911  0.0000E+00  0.0000E+00  0.0000E+00  0.0000E+00  0.0000E+00  0.0000E+00  0.0000E+00  0.0000E+00  0.0000E+00
    -16.789  0.0000E+00  0.0000E+00  0.0000E+00  0.0000E+00  0.0000E+00  0.0000E+00  0.0000E+00  0.0000E+00  0.0000E+00
    -16.668  0.0000E+00  0.0000E+00  0.0000E+00  0.0000E+00  0.0000E+00  0.0000E+00  0.0000E+00  0.0000E+00  0.0000E+00
    -16.546  0.0000E+00  0.0000E+00  0.0000E+00  0.0000E+00  0.0000E+00  0.0000E+00  0.0000E+00  0.0000E+00  0.0000E+00
    -16.425  0.0000E+00  0.0000E+00  0.0000E+00  0.0000E+00  0.0000E+00  0.0000E+00  0.0000E+00  0.0000E+00  0.0000E+00
    -16.303  0.0000E+00  0.0000E+00  0.0000E+00  0.0000E+00  0.0000E+00  0.0000E+00  0.0000E+00  0.0000E+00  0.0000E+00
    -16.182  0.0000E+00  0.0000E+00  0.0000E+00  0.0000E+00  0.0000E+00  0.0000E+00  0.0000E+00  0.0000E+00  0.0000E+00
    -16.060  0.0000E+00  0.0000E+00  0.0000E+00  0.0000E+00  0.0000E+00  0.0000E+00  0.0000E+00  0.0000E+00  0.0000E+00
    -15.939  0.0000E+00  0.0000E+00  0.0000E+00  0.0000E+00  0.0000E+00  0.0000E+00  0.0000E+00  0.0000E+00  0.0000E+00
    -15.817  0.0000E+00  0.0000E+00  0.0000E+00  0.0000E+00  0.0000E+00  0.0000E+00  0.0000E+00  0.0000E+00  0.0000E+00
    -15.696  0.0000E+00  0.0000E+00  0.0000E+00  0.0000E+00  0.0000E+00  0.0000E+00  0.0000E+00  0.0000E+00  0.0000E+00
    -15.574  0.0000E+00  0.0000E+00  0.0000E+00  0.0000E+00  0.0000E+00  0.0000E+00  0.0000E+00  0.0000E+00  0.0000E+00
    -15.453  0.0000E+00  0.0000E+00  0.0000E+00  0.0000E+00  0.0000E+00  0.0000E+00  0.0000E+00  0.0000E+00  0.0000E+00
    -15.331  0.0000E+00  0.0000E+00  0.0000E+00  0.0000E+00  0.0000E+00  0.0000E+00  0.0000E+00  0.0000E+00  0.0000E+00
    -15.210  0.0000E+00  0.0000E+00  0.0000E+00  0.0000E+00  0.0000E+00  0.0000E+00  0.0000E+00  0.0000E+00  0.0000E+00
    -15.088  0.0000E+00  0.0000E+00  0.0000E+00  0.0000E+00  0.0000E+00  0.0000E+00  0.0000E+00  0.0000E+00  0.0000E+00
    -14.967  0.0000E+00  0.0000E+00  0.0000E+00  0.0000E+00  0.0000E+00  0.0000E+00  0.0000E+00  0.0000E+00  0.0000E+00
    -14.845  0.0000E+00  0.0000E+00  0.0000E+00  0.0000E+00  0.0000E+00  0.0000E+00  0.0000E+00  0.0000E+00  0.0000E+00
    -14.724  0.0000E+00  0.0000E+00  0.0000E+00  0.0000E+00  0.0000E+00  0.0000E+00  0.0000E+00  0.0000E+00  0.0000E+00
    -14.602  0.0000E+00  0.0000E+00  0.0000E+00  0.0000E+00  0.0000E+00  0.0000E+00  0.0000E+00  0.0000E+00  0.0000E+00
    -14.481  0.0000E+00  0.0000E+00  0.0000E+00  0.0000E+00  0.0000E+00  0.0000E+00  0.0000E+00  0.0000E+00  0.0000E+00
    -14.359  0.0000E+00  0.0000E+00  0.0000E+00  0.0000E+00  0.0000E+00  0.0000E+00  0.0000E+00  0.0000E+00  0.0000E+00
    -14.238  0.0000E+00  0.0000E+00  0.0000E+00  0.0000E+00  0.0000E+00  0.0000E+00  0.0000E+00  0.0000E+00  0.0000E+00
    -14.116  0.0000E+00  0.0000E+00  0.0000E+00  0.0000E+00  0.0000E+00  0.0000E+00  0.0000E+00  0.0000E+00  0.0000E+00
    -13.995  0.0000E+00  0.0000E+00  0.0000E+00  0.0000E+00  0.0000E+00  0.0000E+00  0.0000E+00  0.0000E+00  0.0000E+00
    -13.873  0.0000E+00  0.0000E+00  0.0000E+00  0.0000E+00  0.0000E+00  0.0000E+00  0.0000E+00  0.0000E+00  0.0000E+00
    -13.752  0.0000E+00  0.0000E+00  0.0000E+00  0.0000E+00  0.0000E+00  0.0000E+00  0.0000E+00  0.0000E+00  0.0000E+00
    -13.630  0.0000E+00  0.0000E+00  0.0000E+00  0.0000E+00  0.0000E+00  0.0000E+00  0.0000E+00  0.0000E+00  0.0000E+00
    -13.509  0.0000E+00  0.0000E+00  0.0000E+00  0.0000E+00  0.0000E+00  0.0000E+00  0.0000E+00  0.0000E+00  0.0000E+00
    -13.387  0.0000E+00  0.0000E+00  0.0000E+00  0.0000E+00  0.0000E+00  0.0000E+00  0.0000E+00  0.0000E+00  0.0000E+00
    -13.266  0.0000E+00  0.0000E+00  0.0000E+00  0.0000E+00  0.0000E+00  0.0000E+00  0.0000E+00  0.0000E+00  0.0000E+00
    -13.144  0.0000E+00  0.0000E+00  0.0000E+00  0.0000E+00  0.0000E+00  0.0000E+00  0.0000E+00  0.0000E+00  0.0000E+00
    -13.023  0.0000E+00  0.0000E+00  0.0000E+00  0.0000E+00  0.0000E+00  0.0000E+00  0.0000E+00  0.0000E+00  0.0000E+00
    -12.901  0.0000E+00  0.0000E+00  0.0000E+00  0.0000E+00  0.0000E+00  0.0000E+00  0.0000E+00  0.0000E+00  0.0000E+00
    -12.780  0.0000E+00  0.0000E+00  0.0000E+00  0.0000E+00  0.0000E+00  0.0000E+00  0.0000E+00  0.0000E+00  0.0000E+00
    -12.659  0.0000E+00  0.0000E+00  0.0000E+00  0.0000E+00  0.0000E+00  0.0000E+00  0.0000E+00  0.0000E+00  0.0000E+00
    -12.537  0.0000E+00  0.0000E+00  0.0000E+00  0.0000E+00  0.0000E+00  0.0000E+00  0.0000E+00  0.0000E+00  0.0000E+00
    -12.416  0.0000E+00  0.0000E+00  0.0000E+00  0.0000E+00  0.0000E+00  0.0000E+00  0.0000E+00  0.0000E+00  0.0000E+00
    -12.294  0.0000E+00  0.0000E+00  0.0000E+00  0.0000E+00  0.0000E+00  0.0000E+00  0.0000E+00  0.0000E+00  0.0000E+00
    -12.173  0.0000E+00  0.0000E+00  0.0000E+00  0.0000E+00  0.0000E+00  0.0000E+00  0.0000E+00  0.0000E+00  0.0000E+00
    -12.051  0.0000E+00  0.0000E+00  0.0000E+00  0.0000E+00  0.0000E+00  0.0000E+00  0.0000E+00  0.0000E+00  0.0000E+00
    -11.930  0.0000E+00  0.0000E+00  0.0000E+00  0.0000E+00  0.0000E+00  0.0000E+00  0.0000E+00  0.0000E+00  0.0000E+00
    -11.808  0.0000E+00  0.0000E+00  0.0000E+00  0.0000E+00  0.0000E+00  0.0000E+00  0.0000E+00  0.0000E+00  0.0000E+00
    -11.687  0.0000E+00  0.0000E+00  0.0000E+00  0.0000E+00  0.0000E+00  0.0000E+00  0.0000E+00  0.0000E+00  0.0000E+00
    -11.565  0.0000E+00  0.0000E+00  0.0000E+00  0.0000E+00  0.0000E+00  0.0000E+00  0.0000E+00  0.0000E+00  0.0000E+00
    -11.444  0.0000E+00  0.0000E+00  0.0000E+00  0.0000E+00  0.0000E+00  0.0000E+00  0.0000E+00  0.0000E+00  0.0000E+00
    -11.322  0.0000E+00  0.0000E+00  0.0000E+00  0.0000E+00  0.0000E+00  0.0000E+00  0.0000E+00  0.0000E+00  0.0000E+00
    -11.201  0.0000E+00  0.0000E+00  0.0000E+00  0.0000E+00  0.0000E+00  0.0000E+00  0.0000E+00  0.0000E+00  0.0000E+00
    -11.079  0.0000E+00  0.0000E+00  0.0000E+00  0.0000E+00  0.0000E+00  0.0000E+00  0.0000E+00  0.0000E+00  0.0000E+00
    -10.958  0.0000E+00  0.0000E+00  0.0000E+00  0.0000E+00  0.0000E+00  0.0000E+00  0.0000E+00  0.0000E+00  0.0000E+00
    -10.836  0.0000E+00  0.0000E+00  0.0000E+00  0.0000E+00  0.0000E+00  0.0000E+00  0.0000E+00  0.0000E+00  0.0000E+00
    -10.715  0.0000E+00  0.0000E+00  0.0000E+00  0.0000E+00  0.0000E+00  0.0000E+00  0.0000E+00  0.0000E+00  0.0000E+00
    -10.593  0.0000E+00  0.0000E+00  0.0000E+00  0.0000E+00  0.0000E+00  0.0000E+00  0.0000E+00  0.0000E+00  0.0000E+00
    -10.472  0.0000E+00  0.0000E+00  0.0000E+00  0.0000E+00  0.0000E+00  0.0000E+00  0.0000E+00  0.0000E+00  0.0000E+00
    -10.350  0.0000E+00  0.0000E+00  0.0000E+00  0.0000E+00  0.0000E+00  0.0000E+00  0.0000E+00  0.0000E+00  0.0000E+00
    -10.229  0.0000E+00  0.0000E+00  0.0000E+00  0.0000E+00  0.0000E+00  0.0000E+00  0.0000E+00  0.0000E+00  0.0000E+00
    -10.107  0.0000E+00  0.0000E+00  0.0000E+00  0.0000E+00  0.0000E+00  0.0000E+00  0.0000E+00  0.0000E+00  0.0000E+00
     -9.986  0.0000E+00  0.0000E+00  0.0000E+00  0.0000E+00  0.0000E+00  0.0000E+00  0.0000E+00  0.0000E+00  0.0000E+00
     -9.864  0.0000E+00  0.0000E+00  0.0000E+00  0.0000E+00  0.0000E+00  0.0000E+00  0.0000E+00  0.0000E+00  0.0000E+00
     -9.743  0.0000E+00  0.0000E+00  0.0000E+00  0.0000E+00  0.0000E+00  0.0000E+00  0.0000E+00  0.0000E+00  0.0000E+00
     -9.621  0.0000E+00  0.0000E+00  0.0000E+00  0.0000E+00  0.0000E+00  0.0000E+00  0.0000E+00  0.0000E+00  0.0000E+00
     -9.500  0.0000E+00  0.0000E+00  0.0000E+00  0.0000E+00  0.0000E+00  0.0000E+00  0.0000E+00  0.0000E+00  0.0000E+00
     -9.378  0.0000E+00  0.0000E+00  0.0000E+00  0.0000E+00  0.0000E+00  0.0000E+00  0.0000E+00  0.0000E+00  0.0000E+00
     -9.257  0.0000E+00  0.0000E+00  0.0000E+00  0.0000E+00  0.0000E+00  0.0000E+00  0.0000E+00  0.0000E+00  0.0000E+00
     -9.135  0.0000E+00  0.0000E+00  0.0000E+00  0.0000E+00  0.0000E+00  0.0000E+00  0.0000E+00  0.0000E+00  0.0000E+00
     -9.014  0.0000E+00  0.0000E+00  0.0000E+00  0.0000E+00  0.0000E+00  0.0000E+00  0.0000E+00  0.0000E+00  0.0000E+00
     -8.892  0.0000E+00  0.0000E+00  0.0000E+00  0.0000E+00  0.0000E+00  0.0000E+00  0.0000E+00  0.0000E+00  0.0000E+00
     -8.771  0.0000E+00  0.0000E+00  0.0000E+00  0.0000E+00  0.0000E+00  0.0000E+00  0.0000E+00  0.0000E+00  0.0000E+00
     -8.649  0.0000E+00  0.0000E+00  0.0000E+00  0.0000E+00  0.0000E+00  0.0000E+00  0.0000E+00  0.0000E+00  0.0000E+00
     -8.528  0.0000E+00  0.0000E+00  0.0000E+00  0.0000E+00  0.0000E+00  0.0000E+00  0.0000E+00  0.0000E+00  0.0000E+00
     -8.406  0.0000E+00  0.0000E+00  0.0000E+00  0.0000E+00  0.0000E+00  0.0000E+00  0.0000E+00  0.0000E+00  0.0000E+00
     -8.285  0.0000E+00  0.0000E+00  0.0000E+00  0.0000E+00  0.0000E+00  0.0000E+00  0.0000E+00  0.0000E+00  0.0000E+00
     -8.163  0.0000E+00  0.0000E+00  0.0000E+00  0.0000E+00  0.0000E+00  0.0000E+00  0.0000E+00  0.0000E+00  0.0000E+00
     -8.042  0.0000E+00  0.0000E+00  0.0000E+00  0.0000E+00  0.0000E+00  0.0000E+00  0.0000E+00  0.0000E+00  0.0000E+00
     -7.920  0.0000E+00  0.0000E+00  0.0000E+00  0.0000E+00  0.0000E+00  0.0000E+00  0.0000E+00  0.0000E+00  0.0000E+00
     -7.799  0.0000E+00  0.0000E+00  0.0000E+00  0.0000E+00  0.0000E+00  0.0000E+00  0.0000E+00  0.0000E+00  0.0000E+00
     -7.677  0.0000E+00  0.0000E+00  0.0000E+00  0.0000E+00  0.0000E+00  0.0000E+00  0.0000E+00  0.0000E+00  0.0000E+00
     -7.556  0.0000E+00  0.0000E+00  0.0000E+00  0.0000E+00  0.0000E+00  0.0000E+00  0.0000E+00  0.0000E+00  0.0000E+00
     -7.434  0.0000E+00  0.0000E+00  0.0000E+00  0.0000E+00  0.0000E+00  0.0000E+00  0.0000E+00  0.0000E+00  0.0000E+00
     -7.313  0.0000E+00  0.0000E+00  0.0000E+00  0.0000E+00  0.0000E+00  0.0000E+00  0.0000E+00  0.0000E+00  0.0000E+00
     -7.191  0.0000E+00  0.0000E+00  0.0000E+00  0.0000E+00  0.0000E+00  0.0000E+00  0.0000E+00  0.0000E+00  0.0000E+00
     -7.070  0.0000E+00  0.0000E+00  0.0000E+00  0.0000E+00  0.0000E+00  0.0000E+00  0.0000E+00  0.0000E+00  0.0000E+00
     -6.948  0.0000E+00  0.0000E+00  0.0000E+00  0.0000E+00  0.0000E+00  0.0000E+00  0.0000E+00  0.0000E+00  0.0000E+00
     -6.827  0.0000E+00  0.0000E+00  0.0000E+00  0.0000E+00  0.0000E+00  0.0000E+00  0.0000E+00  0.0000E+00  0.0000E+00
     -6.705  0.0000E+00  0.0000E+00  0.0000E+00  0.0000E+00  0.0000E+00  0.0000E+00  0.0000E+00  0.0000E+00  0.0000E+00
     -6.584  0.0000E+00  0.0000E+00  0.0000E+00  0.0000E+00  0.0000E+00  0.0000E+00  0.0000E+00  0.0000E+00  0.0000E+00
     -6.462  0.0000E+00  0.0000E+00  0.0000E+00  0.0000E+00  0.0000E+00  0.0000E+00  0.0000E+00  0.0000E+00  0.0000E+00
     -6.341  0.0000E+00  0.0000E+00  0.0000E+00  0.0000E+00  0.0000E+00  0.0000E+00  0.0000E+00  0.0000E+00  0.0000E+00
     -6.219  0.0000E+00  0.0000E+00  0.0000E+00  0.0000E+00  0.0000E+00  0.0000E+00  0.0000E+00  0.0000E+00  0.0000E+00
     -6.098  0.0000E+00  0.0000E+00  0.0000E+00  0.0000E+00  0.0000E+00  0.0000E+00  0.0000E+00  0.0000E+00  0.0000E+00
     -5.976  0.0000E+00  0.0000E+00  0.0000E+00  0.0000E+00  0.0000E+00  0.0000E+00  0.0000E+00  0.0000E+00  0.0000E+00
     -5.855  0.2074E-02  0.6640E-05  0.1874E-04  0.6639E-05  0.3850E-08  0.3858E-08  0.5320E-06  0.3850E-08  0.1305E-14
     -5.733  0.2799E-01  0.2331E-03  0.2879E-03  0.2331E-03  0.3403E-06  0.6971E-07  0.1601E-04  0.6960E-07  0.9061E-14
     -5.612  0.3745E-01  0.4440E-03  0.8513E-03  0.4440E-03  0.6597E-06  0.4039E-06  0.6850E-04  0.4036E-06  0.8615E-14
     -5.490  0.4811E-01  0.7786E-03  0.1497E-02  0.7446E-03  0.1224E-05  0.9495E-06  0.1467E-03  0.8100E-06  0.1169E-05
     -5.369  0.5025E-01  0.1461E-02  0.2278E-02  0.1224E-02  0.2561E-05  0.2105E-05  0.3301E-03  0.1133E-05  0.8170E-05
     -5.247  0.5528E-01  0.1956E-02  0.3316E-02  0.1576E-02  0.3071E-05  0.3352E-05  0.5605E-03  0.1794E-05  0.1310E-04
     -5.126  0.5962E-01  0.2596E-02  0.4390E-02  0.2104E-02  0.3928E-05  0.4574E-05  0.8614E-03  0.2571E-05  0.1720E-04
     -5.004  0.5948E-01  0.4166E-02  0.5823E-02  0.2959E-02  0.5320E-05  0.6911E-05  0.1503E-02  0.2951E-05  0.7230E-04
     -4.883  0.5954E-01  0.5928E-02  0.7514E-02  0.4037E-02  0.6162E-05  0.8950E-05  0.2359E-02  0.3390E-05  0.1252E-03
     -4.761  0.6017E-01  0.7977E-02  0.9605E-02  0.5580E-02  0.6400E-05  0.1052E-04  0.3502E-02  0.4042E-05  0.1654E-03
     -4.640  0.5908E-01  0.1688E-01  0.1543E-01  0.1272E-01  0.1029E-04  0.1326E-04  0.6888E-02  0.4705E-05  0.4523E-03
     -4.518  0.4842E-01  0.1808E-01  0.1294E-01  0.1128E-01  0.9294E-05  0.1255E-04  0.1109E-01  0.3012E-05  0.8868E-03
     -4.397  0.4165E-01  0.2195E-01  0.8615E-02  0.1172E-01  0.9846E-05  0.7711E-05  0.2017E-01  0.1560E-05  0.1306E-02
     -4.275  0.3894E-02  0.5210E-02  0.5889E-03  0.8393E-03  0.7991E-06  0.7453E-06  0.4522E-02  0.3978E-07  0.6209E-03
     -4.154  0.0000E+00  0.0000E+00  0.0000E+00  0.0000E+00  0.0000E+00  0.0000E+00  0.0000E+00  0.0000E+00  0.0000E+00
     -4.032  0.0000E+00  0.0000E+00  0.0000E+00  0.0000E+00  0.0000E+00  0.0000E+00  0.0000E+00  0.0000E+00  0.0000E+00
     -3.911  0.0000E+00  0.0000E+00  0.0000E+00  0.0000E+00  0.0000E+00  0.0000E+00  0.0000E+00  0.0000E+00  0.0000E+00
     -3.789  0.0000E+00  0.0000E+00  0.0000E+00  0.0000E+00  0.0000E+00  0.0000E+00  0.0000E+00  0.0000E+00  0.0000E+00
     -3.668  0.0000E+00  0.0000E+00  0.0000E+00  0.0000E+00  0.0000E+00  0.0000E+00  0.0000E+00  0.0000E+00  0.0000E+00
     -3.546  0.0000E+00  0.0000E+00  0.0000E+00  0.0000E+00  0.0000E+00  0.0000E+00  0.0000E+00  0.0000E+00  0.0000E+00
     -3.425  0.0000E+00  0.0000E+00  0.0000E+00  0.0000E+00  0.0000E+00  0.0000E+00  0.0000E+00  0.0000E+00  0.0000E+00
     -3.303  0.0000E+00  0.0000E+00  0.0000E+00  0.0000E+00  0.0000E+00  0.0000E+00  0.0000E+00  0.0000E+00  0.0000E+00
     -3.182  0.0000E+00  0.0000E+00  0.0000E+00  0.0000E+00  0.0000E+00  0.0000E+00  0.0000E+00  0.0000E+00  0.0000E+00
     -3.060  0.0000E+00  0.0000E+00  0.0000E+00  0.0000E+00  0.0000E+00  0.0000E+00  0.0000E+00  0.0000E+00  0.0000E+00
     -2.939  0.0000E+00  0.0000E+00  0.0000E+00  0.0000E+00  0.0000E+00  0.0000E+00  0.0000E+00  0.0000E+00  0.0000E+00
     -2.817  0.0000E+00  0.0000E+00  0.0000E+00  0.0000E+00  0.0000E+00  0.0000E+00  0.0000E+00  0.0000E+00  0.0000E+00
     -2.696  0.0000E+00  0.0000E+00  0.0000E+00  0.0000E+00  0.0000E+00  0.0000E+00  0.0000E+00  0.0000E+00  0.0000E+00
     -2.574  0.0000E+00  0.0000E+00  0.0000E+00  0.0000E+00  0.0000E+00  0.0000E+00  0.0000E+00  0.0000E+00  0.0000E+00
     -2.453  0.0000E+00  0.0000E+00  0.0000E+00  0.0000E+00  0.0000E+00  0.0000E+00  0.0000E+00  0.0000E+00  0.0000E+00
     -2.331  0.0000E+00  0.0000E+00  0.0000E+00  0.0000E+00  0.0000E+00  0.0000E+00  0.0000E+00  0.0000E+00  0.0000E+00
     -2.210  0.0000E+00  0.0000E+00  0.0000E+00  0.0000E+00  0.0000E+00  0.0000E+00  0.0000E+00  0.0000E+00  0.0000E+00
     -2.088  0.0000E+00  0.0000E+00  0.0000E+00  0.0000E+00  0.0000E+00  0.0000E+00  0.0000E+00  0.0000E+00  0.0000E+00
     -1.967  0.0000E+00  0.0000E+00  0.0000E+00  0.0000E+00  0.0000E+00  0.0000E+00  0.0000E+00  0.0000E+00  0.0000E+00
     -1.845  0.0000E+00  0.0000E+00  0.0000E+00  0.0000E+00  0.0000E+00  0.0000E+00  0.0000E+00  0.0000E+00  0.0000E+00
     -1.724  0.0000E+00  0.0000E+00  0.0000E+00  0.0000E+00  0.0000E+00  0.0000E+00  0.0000E+00  0.0000E+00  0.0000E+00
     -1.602  0.0000E+00  0.0000E+00  0.0000E+00  0.0000E+00  0.0000E+00  0.0000E+00  0.0000E+00  0.0000E+00  0.0000E+00
     -1.481  0.0000E+00  0.0000E+00  0.0000E+00  0.0000E+00  0.0000E+00  0.0000E+00  0.0000E+00  0.0000E+00  0.0000E+00
     -1.359  0.3169E-01  0.5034E-04  0.6755E-04  0.5034E-04  0.3308E-04  0.2874E-04  0.6045E-05  0.2874E-04  0.7453E-14
     -1.238  0.2066E+00  0.3283E-03  0.4772E-03  0.3661E-03  0.2122E-03  0.1839E-03  0.4033E-04  0.1805E-03  0.1539E-05
     -1.116  0.3918E+00  0.7701E-03  0.1159E-02  0.1047E-02  0.3561E-03  0.3019E-03  0.1545E-03  0.2574E-03  0.3359E-04
     -0.995  0.4913E+00  0.1314E-02  0.1362E-02  0.1642E-02  0.3851E-03  0.3350E-03  0.3350E-03  0.2401E-03  0.9671E-04
     -0.873  0.8073E+00  0.2039E-02  0.1945E-02  0.2724E-02  0.6103E-03  0.4059E-03  0.7315E-03  0.2619E-03  0.1761E-03
     -0.752  0.9660E+00  0.2755E-02  0.2093E-02  0.3519E-02  0.6793E-03  0.4289E-03  0.9499E-03  0.2471E-03  0.2541E-03
     -0.630  0.1082E+01  0.4086E-02  0.2467E-02  0.3909E-02  0.5076E-03  0.4093E-03  0.1098E-02  0.1810E-03  0.4430E-03
     -0.509  0.7225E+00  0.3930E-02  0.1886E-02  0.2696E-02  0.2681E-03  0.3219E-03  0.9490E-03  0.1397E-03  0.3058E-03
     -0.387  0.6101E+00  0.3757E-02  0.1727E-02  0.2361E-02  0.2090E-03  0.2792E-03  0.9573E-03  0.1201E-03  0.2386E-03
     -0.266  0.5380E+00  0.3567E-02  0.1703E-02  0.2124E-02  0.1708E-03  0.2399E-03  0.9952E-03  0.1043E-03  0.1857E-03
     -0.144  0.5178E+00  0.3529E-02  0.2040E-02  0.2035E-02  0.1195E-03  0.2017E-03  0.1246E-02  0.9297E-04  0.1365E-03
     -0.023  0.4431E+00  0.2599E-02  0.1995E-02  0.1706E-02  0.7869E-04  0.1296E-03  0.1374E-02  0.7542E-04  0.6262E-04
      0.099  0.3030E+00  0.1814E-02  0.1280E-02  0.1322E-02  0.6749E-04  0.9115E-04  0.9724E-03  0.5728E-04  0.3497E-04
      0.220  0.2069E+00  0.1419E-02  0.8704E-03  0.1066E-02  0.5927E-04  0.7243E-04  0.6876E-03  0.4416E-04  0.2537E-04
      0.342  0.1497E+00  0.1191E-02  0.6679E-03  0.9034E-03  0.5147E-04  0.5969E-04  0.4943E-03  0.3461E-04  0.2072E-04
      0.463  0.1238E+00  0.1051E-02  0.6199E-03  0.8092E-03  0.4247E-04  0.4935E-04  0.3741E-03  0.2812E-04  0.1737E-04
      0.585  0.9137E-01  0.7405E-03  0.6222E-03  0.6644E-03  0.3014E-04  0.2776E-04  0.2231E-03  0.2106E-04  0.5481E-05
      0.706  0.7393E-01  0.5595E-03  0.5838E-03  0.5506E-03  0.2092E-04  0.1733E-04  0.1615E-03  0.1655E-04  0.6365E-06
      0.828  0.6511E-01  0.4858E-03  0.5316E-03  0.4858E-03  0.1773E-04  0.1328E-04  0.1317E-03  0.1327E-04  0.2794E-14
      0.949  0.5781E-01  0.4310E-03  0.4778E-03  0.4310E-03  0.1556E-04  0.1044E-04  0.1080E-03  0.1044E-04  0.2445E-14
      1.071  0.5078E-01  0.3794E-03  0.4245E-03  0.3794E-03  0.1352E-04  0.7911E-05  0.8563E-04  0.7909E-05  0.2114E-14
      1.192  0.4400E-01  0.3310E-03  0.3719E-03  0.3310E-03  0.1162E-04  0.5679E-05  0.6471E-04  0.5677E-05  0.1801E-14
      1.314  0.3748E-01  0.2857E-03  0.3198E-03  0.2857E-03  0.9843E-05  0.3748E-05  0.4521E-04  0.3746E-05  0.1504E-14
      1.435  0.3209E-01  0.2158E-03  0.4074E-02  0.2158E-03  0.6357E-05  0.9737E-05  0.4373E-04  0.4487E-05  0.4298E-14
      1.557  0.2572E-01  0.1409E-03  0.1921E-01  0.1472E-03  0.2701E-05  0.4162E-04  0.1110E-03  0.1398E-04  0.2725E-07
      1.678  0.2216E-01  0.1767E-03  0.5126E-01  0.4209E-03  0.8916E-05  0.1940E-03  0.3326E-03  0.6898E-04  0.1057E-05
      1.800  0.1597E-01  0.1638E-03  0.5144E-01  0.9487E-03  0.2067E-04  0.2927E-03  0.5150E-03  0.8054E-04  0.3271E-05
      1.921  0.1316E-01  0.2160E-03  0.6338E-01  0.1802E-02  0.3968E-04  0.4200E-03  0.7776E-03  0.1215E-03  0.4766E-05