    2    2    1    1
  0.3152455E+02  0.4467501E-09  0.4467501E-09  0.4467501E-09  0.5000000E-15
  1.000000000000000E-004
  CAR 
 unknown system                          
   20   29   16
 
  0.3742002E-15  0.3742002E-15  0.3742002E-15  0.1953125E-02
   1      -15.015402
   2      -15.015402
   3      -15.011290
   4      -15.011280
   5      -15.011280
   6       -5.887255
   7        2.149593
   8        4.736508
   9        4.736508
  10        4.736515
  11       10.192653
  12       10.192653
  13       10.192679
  14       11.625415
  15       11.625426
  16       11.625426
 
  0.1250000E+00  0.3677614E-15  0.3677614E-15  0.1562500E-01
   1      -15.016230
   2      -15.016221
   3      -15.011420
   4      -15.010560
   5      -15.010542
   6       -5.757187
   7        1.458599
   8        4.759599
   9        4.759604
  10        5.219530
  11        9.520974
  12        9.520999
  13        9.551231
  14       11.569482
  15       11.944886
  16       11.944899
 
  0.2500000E+00  0.4024558E-15  0.4024558E-15  0.1562500E-01
   1      -15.018397
   2      -15.018379
   3      -15.010644
   4      -15.008185
   5      -15.008158
   6       -5.391472
   7        0.201370
   8        4.842690
   9        4.842691
  10        5.903178
  11        8.431686
  12        8.431714
  13        8.492931
  14       11.995876
  15       12.828153
  16       12.828166
 
  0.3750000E+00  0.3885781E-15  0.3885781E-15  0.1562500E-01
   1      -15.020443
   2      -15.020421
   3      -15.010193
   4      -15.005685
   5      -15.005655
   6       -4.901340
   7       -0.932463
   8        4.983782
   9        4.983787
  10        6.409610
  11        7.576784
  12        7.576817
  13        7.586746
  14       13.212268
  15       14.198558
  16       14.198566
 
  0.5000000E+00  0.4163336E-15  0.4163336E-15  0.7812500E-02
   1      -15.021247
   2      -15.021224
   3      -15.009726
   4      -15.004487
   5      -15.004456
   6       -4.624635
   7       -1.437661
   8        5.071667
   9        5.071676
  10        6.876185
  11        6.949280
  12        7.237492
  13        7.237528
  14       14.625437
  15       15.598533
  16       15.694310
 
  0.1250000E+00  0.1250000E+00  0.3734198E-15  0.1171875E-01
   1      -15.017922
   2      -15.014856
   3      -15.011888
   4      -15.010114
   5      -15.010108
   6       -5.714282
   7        1.401577
   8        4.437459
   9        4.437463
  10        5.836919
  11        8.268279
  12       10.266004
  13       10.266019
  14       10.845490
  15       12.477072
  16       12.477074
 
  0.2500000E+00  0.1250000E+00  0.3677614E-15  0.4687500E-01
   1      -15.020418
   2      -15.015545
   3      -15.012021
   4      -15.008354
   5      -15.007852
   6       -5.428045
   7        0.547178
   8        4.258405
   9        4.384927
  10        6.029524
  11        7.705461
  12        9.772250
  13        9.790274
  14       10.833035
  15       13.238055
  16       13.410585
 
  0.3750000E+00  0.1250000E+00  0.3747003E-15  0.4687500E-01
   1      -15.022141
   2      -15.017475
   3      -15.010751
   4      -15.006402
   5      -15.005036
   6       -4.973676
   7       -0.529049
   8        4.293629
   9        4.408510
  10        5.523251
  11        7.989123
  12        8.832224
  13        9.094994
  14       11.580261
  15       14.383068
  16       14.756454
 
  0.5000000E+00  0.1250000E+00  0.4163336E-15  0.4687500E-01
   1      -15.022671
   2      -15.019548
   3      -15.009369
   4      -15.005392
   5      -15.004100
   6       -4.591834
   7       -1.248733
   8        4.091156
   9        4.557083
  10        5.576139
  11        7.930540
  12        8.014299
  13        8.965410
  14       13.025792
  15       15.163709
  16       15.731029
 
 -0.3750000E+00  0.1250000E+00  0.3608225E-15  0.4687500E-01
   1      -15.021235
   2      -15.020329
   3      -15.009240
   4      -15.005176
   5      -15.005153
   6       -4.684381
   7       -1.104019
   8        3.774015
   9        4.966276
  10        6.100065
  11        7.502062
  12        7.507087
  13        9.450239
  14       13.231097
  15       14.044523
  16       15.122939
 
 -0.2500000E+00  0.1250000E+00  0.4163336E-15  0.4687500E-01
   1      -15.019688
   2      -15.018752
   3      -15.010268
   4      -15.007539
   5      -15.006189
   6       -5.134533
   7       -0.243579
   8        3.750198
   9        5.230655
  10        6.546851
  11        7.377123
  12        7.568586
  13       10.022733
  14       12.052868
  15       12.748073
  16       14.774820
 
 -0.1250000E+00  0.1250000E+00  0.4024558E-15  0.2343750E-01
   1      -15.018303
   2      -15.016653
   3      -15.011244
   4      -15.009822
   5      -15.008452
   6       -5.548301
   7        0.769120
   8        4.115055
   9        5.096208
  10        5.971726
  11        8.332491
  12        8.360426
  13       10.238775
  14       11.585568
  15       12.030421
  16       13.208252
 
  0.2500000E+00  0.2500000E+00  0.3843798E-15  0.1171875E-01
   1      -15.023398
   2      -15.013215
   3      -15.013115
   4      -15.006124
   5      -15.006118
   6       -5.236076
   7        0.512145
   8        3.833461
   9        3.833465
  10        4.840764
  11        8.873609
  12        9.884156
  13       10.711274
  14       10.711288
  15       14.418106
  16       14.448481
 
  0.3750000E+00  0.2500000E+00  0.3747003E-15  0.4687500E-01
   1      -15.026215
   2      -15.013763
   3      -15.013352
   4      -15.004651
   5      -15.003967
   6       -4.870927
   7       -0.059017
   8        3.470069
   9        3.676495
  10        4.089746
  11        9.719623
  12       10.024544
  13       10.373614
  14       10.720263
  15       15.467477
  16       15.486161
 
  0.5000000E+00  0.2500000E+00  0.4024558E-15  0.4687500E-01
   1      -15.026465
   2      -15.015688
   3      -15.011278
   4      -15.004330
   5      -15.002987
   6       -4.499151
   7       -0.731047
   8        2.768301
   9        3.821463
  10        4.412386
  11        9.488360
  12        9.493379
  13       10.918902
  14       11.110537
  15       15.398553
  16       16.011768
 
 -0.3750000E+00  0.2500000E+00  0.3330669E-15  0.4687500E-01
   1      -15.024451
   2      -15.017935
   3      -15.008282
   4      -15.005834
   5      -15.003823
   6       -4.427681
   7       -0.967211
   8        2.482599
   9        4.255889
  10        5.026242
  11        8.574453
  12        8.851170
  13       11.256316
  14       12.697625
  15       13.815542
  16       14.372726
 
 -0.2500000E+00  0.2500000E+00  0.3885781E-15  0.2343750E-01
   1      -15.021296
   2      -15.019507
   3      -15.008609
   4      -15.006212
   5      -15.005938
   6       -4.739058
   7       -0.688731
   8        2.804260
   9        4.875453
  10        5.859144
  11        7.785298
  12        8.019641
  13       10.979818
  14       12.808786
  15       13.248221
  16       14.758600
 
  0.3750000E+00  0.3750000E+00  0.3843798E-15  0.1171875E-01
   1      -15.029872
   2      -15.014971
   3      -15.011689
   4      -15.002521
   5      -15.002515
   6       -4.634262
   7        0.172450
   8        2.563373
   9        3.336899
  10        3.336902
  11        9.272163
  12       11.383358
  13       11.383375
  14       11.557136
  15       15.232233
  16       16.219169
 
  0.5000000E+00  0.3750000E+00  0.3747003E-15  0.4687500E-01
   1      -15.030700
   2      -15.014242
   3      -15.012360
   4      -15.001807
   5      -15.001514
   6       -4.384891
   7       -0.042670
   8        1.777691
   9        3.324417
  10        3.537263
  11        9.502391
  12       10.987880
  13       11.191705
  14       12.511714
  15       16.236641
  16       16.389244
 
 -0.3750000E+00  0.3750000E+00  0.3885781E-15  0.2343750E-01
   1      -15.028301
   2      -15.014661
   3      -15.011491
   4      -15.003355
   5      -15.002125
   6       -4.292196
   7       -0.539496
   8        1.730038
   9        3.643811
  10        4.165562
  11        9.866308
  12        9.931121
  13       11.056051
  14       12.380892
  15       14.925345
  16       15.275981
 
  0.5000000E+00  0.5000000E+00  0.3624598E-15  0.5859375E-02
   1      -15.032440
   2      -15.015348
   3      -15.011008
   4      -15.000702
   5      -15.000696
   6       -4.330110
   7        0.392988
   8        1.336226
   9        3.152918
  10        3.152921
  11        9.065517
  12       11.748065
  13       11.748085
  14       13.191949
  15       15.840139
  16       17.417038
 
  0.3750000E+00  0.2500000E+00  0.1250000E+00  0.4687500E-01
   1      -15.022633
   2      -15.015880
   3      -15.011894
   4      -15.006452
   5      -15.005924
   6       -5.095975
   7       -0.031108
   8        3.479797
   9        4.528983
  10        5.368708
  11        8.372633
  12        8.909663
  13       10.335008
  14       11.224145
  15       13.842574
  16       14.931737
 
  0.5000000E+00  0.2500000E+00  0.1250000E+00  0.9375000E-01
   1      -15.023778
   2      -15.017361
   3      -15.010138
   4      -15.005599
   5      -15.004154
   6       -4.670534
   7       -0.724733
   8        3.115325
   9        3.913930
  10        5.647507
  11        7.790602
  12        9.369546
  13       10.561253
  14       11.742664
  15       14.728445
  16       15.119122
 
 -0.3750000E+00  0.2500000E+00  0.1250000E+00  0.4687500E-01
   1      -15.024105
   2      -15.018384
   3      -15.008359
   4      -15.006523
   5      -15.003280
   6       -4.445454
   7       -1.067698
   8        3.126867
   9        3.507654
  10        5.923685
  11        7.372016
  12        9.767541
  13       10.414027
  14       12.881876
  15       13.282625
  16       16.258598
 
  0.5000000E+00  0.3750000E+00  0.1250000E+00  0.4687500E-01
   1      -15.028041
   2      -15.014038
   3      -15.012982
   4      -15.003818
   5      -15.002461
   6       -4.548736
   7       -0.303840
   8        2.649862
   9        2.967674
  10        4.511539
  11        9.421088
  12        9.988960
  13       11.217490
  14       11.667075
  15       15.435796
  16       15.984516
 
 -0.3750000E+00  0.3750000E+00  0.1250000E+00  0.9375000E-01
   1      -15.027311
   2      -15.015644
   3      -15.010527
   4      -15.005317
   5      -15.001585
   6       -4.319243
   7       -0.603622
   8        2.120123
   9        2.789859
  10        5.282004
  11        8.422018
  12       10.702763
  13       11.714353
  14       11.921231
  15       13.768666
  16       16.786493
 
 -0.2500000E+00  0.3750000E+00  0.1250000E+00  0.4687500E-01
   1      -15.025372
   2      -15.017137
   3      -15.008078
   4      -15.007334
   5      -15.002482
   6       -4.378089
   7       -0.761630
   8        2.272215
   9        3.149415
  10        5.913950
  11        7.597613
  12       10.467986
  13       11.414588
  14       12.759847
  15       12.936332
  16       15.612440
 
 -0.3750000E+00  0.5000000E+00  0.1250000E+00  0.2343750E-01
   1      -15.030216
   2      -15.013302
   3      -15.013036
   4      -15.002810
   5      -15.000747
   6       -4.287698
   7       -0.119739
   8        1.533549
   9        2.779504
  10        4.305546
  11        9.815944
  12        9.869425
  13       12.008361
  14       12.746164
  15       14.956470
  16       16.683031
 
 -0.2500000E+00  0.5000000E+00  0.2500000E+00  0.1171875E-01
   1      -15.027299
   2      -15.015805
   3      -15.008109
   4      -15.008103
   5      -15.000698
   6       -4.242305
   7       -0.489671
   8        2.078591
   9        2.078614
  10        6.037891
  11        7.706708
  12       11.474781
  13       11.474787
  14       12.895124
  15       12.895149
  16       17.201062
