       N       E                     dE             d eps       ncg     rms          rms(c)
DAV:   1     0.102071762495E+03    0.10207E+03   -0.72789E+03   928   0.998E+02
DAV:   2     0.141140492227E+00   -0.10193E+03   -0.10045E+03  1032   0.270E+02
DAV:   3    -0.741419968295E+01   -0.75553E+01   -0.75410E+01  1144   0.744E+01
DAV:   4    -0.759300205866E+01   -0.17880E+00   -0.17878E+00  1176   0.125E+01
DAV:   5    -0.760013996638E+01   -0.71379E-02   -0.71378E-02  1304   0.218E+00    0.470E+00
DAV:   6    -0.754628128092E+01    0.53859E-01   -0.12755E-01  1240   0.226E+00    0.292E+00
DAV:   7    -0.754711949704E+01   -0.83822E-03   -0.52006E-02  1112   0.108E+00    0.775E-01
DAV:   8    -0.754736867062E+01   -0.24917E-03   -0.72509E-03  1184   0.685E-01    0.173E-01
DAV:   9    -0.754749377290E+01   -0.12510E-03   -0.61766E-04  1224   0.250E-01    0.316E-02
DAV:  10    -0.754748132683E+01    0.12446E-04   -0.10240E-04  1248   0.878E-02    0.154E-02
DAV:  11    -0.754748567024E+01   -0.43434E-05   -0.42745E-05  1120   0.532E-02    0.275E-02
DAV:  12    -0.754748546899E+01    0.20126E-06   -0.27243E-06  1136   0.110E-02
   1 F= -.75474855E+01 E0= -.75474855E+01  d E =0.000000E+00
