 vasp.5.3.3 18Dez12 (build Jan 07 2018 16:34:56) complex                        
  
 executed on             LinuxIFC date 2018.04.21  14:16:55
 running on   24 total cores
 distrk:  each k-point on   24 cores,    1 groups
 distr:  one band on NCORES_PER_BAND=   6 cores,    4 groups


--------------------------------------------------------------------------------------------------------


 INCAR:
 POTCAR:    PAW_PBE Sn_d 06Sep2000                
 POTCAR:    PAW_PBE Te 08Apr2002                  
 POTCAR:    PAW_PBE Sn_d 06Sep2000                
   VRHFIN =Sn: s2p2                                                             
   LEXCH  = PE                                                                  
   EATOM  =  1893.1092 eV,  139.1396 Ry                                         
                                                                                
   TITEL  = PAW_PBE Sn_d 06Sep2000                                              
   LULTRA =        F    use ultrasoft PP ?                                      
   IUNSCR =        1    unscreen: 0-lin 1-nonlin 2-no                           
   RPACOR =    2.300    partial core radius                                     
   POMASS =  118.710; ZVAL   =   14.000    mass and valenz                      
   RCORE  =    2.500    outmost cutoff radius                                   
   RWIGS  =    2.960; RWIGS  =    1.566    wigner-seitz radius (au A)           
   ENMAX  =  241.083; ENMIN  =  180.812 eV                                      
   ICORE  =        3    local potential                                         
   LCOR   =        T    correct aug charges                                     
   LPAW   =        T    paw PP                                                  
   EAUG   =  439.825                                                            
   DEXC   =    0.000                                                            
   RMAX   =    2.560    core radius for proj-oper                               
   RAUG   =    1.300    factor for augmentation sphere                          
   RDEP   =    2.659    radius for radial grids                                 
   RDEPT  =    2.046    core radius for aug-charge                              
                                                                                
   Atomic configuration                                                         
   12 entries                                                                   
     n  l   j            E        occ.                                          
     1  0  0.50    -29007.2859   2.0000                                         
     2  0  0.50     -4378.8056   2.0000                                         
     2  1  1.50     -3930.4293   6.0000                                         
     3  0  0.50      -845.0264   2.0000                                         
     3  1  1.50      -698.5725   6.0000                                         
     3  2  2.50      -473.2839  10.0000                                         
     4  0  0.50      -133.9036   2.0000                                         
     4  1  1.50       -89.6752   6.0000                                         
     4  2  2.50       -25.8375  10.0000                                         
     5  0  0.50       -10.5484   2.0000                                         
     5  1  0.50        -3.6940   2.0000                                         
     4  3  2.50        -2.7416   0.0000                                         
   Description                                                                  
     l       E           TYP  RCUT    TYP  RCUT                                 
     2    -25.8374624     23  2.500                                             
     2     -5.4423304     23  2.500                                             
     0    -10.5483727     23  2.500                                             
     0     13.6058260     23  2.500                                             
     1     -3.6939829     23  2.500                                             
     1      1.9821976     23  2.500                                             
     3     -1.3605826      7  2.500                                             
  local pseudopotential read in
  partial core-charges read in
  partial kinetic energy density read in
  atomic valenz-charges read in
  non local Contribution for L=           2  read in
    real space projection operators read in
  non local Contribution for L=           2  read in
    real space projection operators read in
  non local Contribution for L=           0  read in
    real space projection operators read in
  non local Contribution for L=           0  read in
    real space projection operators read in
  non local Contribution for L=           1  read in
    real space projection operators read in
  non local Contribution for L=           1  read in
    real space projection operators read in
    PAW grid and wavefunctions read in
 
   number of l-projection  operators is LMAX  =           6
   number of lm-projection operators is LMMAX =          18
 
 POTCAR:    PAW_PBE Te 08Apr2002                  
   VRHFIN =Te: s2p4                                                             
   LEXCH  = PE                                                                  
   EATOM  =   223.2721 eV,   16.4100 Ry                                         
                                                                                
   TITEL  = PAW_PBE Te 08Apr2002                                                
   LULTRA =        F    use ultrasoft PP ?                                      
   IUNSCR =        1    unscreen: 0-lin 1-nonlin 2-no                           
   RPACOR =    2.200    partial core radius                                     
   POMASS =  127.600; ZVAL   =    6.000    mass and valenz                      
   RCORE  =    2.300    outmost cutoff radius                                   
   RWIGS  =    2.900; RWIGS  =    1.535    wigner-seitz radius (au A)           
   ENMAX  =  174.982; ENMIN  =  131.236 eV                                      
   ICORE  =        3    local potential                                         
   LCOR   =        T    correct aug charges                                     
   LPAW   =        T    paw PP                                                  
   EAUG   =  368.792                                                            
   DEXC   =    0.000                                                            
   RMAX   =    2.345    core radius for proj-oper                               
   RAUG   =    1.300    factor for augmentation sphere                          
   RDEP   =    2.397    radius for radial grids                                 
   RDEPT  =    2.174    core radius for aug-charge                              
                                                                                
   Atomic configuration                                                         
   13 entries                                                                   
     n  l   j            E        occ.                                          
     1  0  0.50    -31621.2075   2.0000                                         
     2  0  0.50     -4848.7941   2.0000                                         
     2  1  1.50     -4352.1960   6.0000                                         
     3  0  0.50      -964.9612   2.0000                                         
     3  1  1.50      -803.6179   6.0000                                         
     3  2  2.50      -559.8710  10.0000                                         
     4  0  0.50      -164.3522   2.0000                                         
     4  1  1.50      -114.3756   6.0000                                         
     4  2  2.50       -41.6483  10.0000                                         
     5  0  0.50       -15.1072   2.0000                                         
     5  1  0.50        -5.9526   4.0000                                         
     5  2  1.50        -5.4423   0.0000                                         
     4  3  2.50        -5.4423   0.0000                                         
   Description                                                                  
     l       E           TYP  RCUT    TYP  RCUT                                 
     0    -15.1072389     23  2.300                                             
     0    -16.4678215     23  2.300                                             
     1     -5.9526306     23  2.300                                             
     1     -2.4873968     23  2.300                                             
     2     -5.4423304     23  2.300                                             
     3     -1.3605826     23  2.300                                             
  local pseudopotential read in
  partial core-charges read in
  partial kinetic energy density read in
  atomic valenz-charges read in
  non local Contribution for L=           0  read in
    real space projection operators read in
  non local Contribution for L=           0  read in
    real space projection operators read in
  non local Contribution for L=           1  read in
    real space projection operators read in
  non local Contribution for L=           1  read in
    real space projection operators read in
  non local Contribution for L=           2  read in
    real space projection operators read in
    PAW grid and wavefunctions read in
 
   number of l-projection  operators is LMAX  =           5
   number of lm-projection operators is LMMAX =          13
 

 ----------------------------------------------------------------------------- 
|                                                                             |
|  ADVICE TO THIS USER RUNNING 'VASP/VAMP'   (HEAR YOUR MASTER'S VOICE ...):  |
|                                                                             |
|      You have a (more or less) 'small supercell' and for smaller cells      |
|      it is recommended  to use the reciprocal-space projection scheme!      |
|      The real space optimization is not  efficient for small cells and it   |
|      is also less accurate ...                                              |
|      Therefore set LREAL=.FALSE. in the  INCAR file                         |
|                                                                             |
 ----------------------------------------------------------------------------- 

 Optimization of the real space projectors (new method)

 maximal supplied QI-value         = 15.12
 optimisation between [QCUT,QGAM] = [  8.77, 22.22] = [ 21.53,138.30] Ry 
 Optimized for a Real-space Cutoff    1.39 Angstroem

   l    n(q)    QCUT    max X(q) W(low)/X(q) W(high)/X(q)  e(spline) 
   2      8     8.768     5.880    0.37E-04    0.20E-04    0.53E-07
   2      8     8.768     7.804    0.61E-04    0.12E-03    0.14E-06
   0      9     8.768    20.557    0.47E-04    0.58E-04    0.78E-07
   0      9     8.768     9.400    0.53E-04    0.73E-04    0.10E-06
   1      9     8.768    94.178    0.19E-03    0.30E-04    0.23E-06
   1      9     8.768    56.401    0.18E-03    0.29E-04    0.22E-06
 Optimization of the real space projectors (new method)

 maximal supplied QI-value         = 16.25
 optimisation between [QCUT,QGAM] = [  8.78, 22.10] = [ 21.57,136.80] Ry 
 Optimized for a Real-space Cutoff    1.27 Angstroem

   l    n(q)    QCUT    max X(q) W(low)/X(q) W(high)/X(q)  e(spline) 
   0      8     8.776   224.858    0.39E-03    0.40E-04    0.17E-06
   0      8     8.776   205.313    0.39E-03    0.41E-04    0.17E-06
   1      8     8.776   119.695    0.11E-03    0.51E-03    0.22E-06
   1      8     8.776    84.282    0.11E-03    0.50E-03    0.22E-06
   2      7     8.776     5.599    0.25E-03    0.28E-04    0.33E-07
  PAW_PBE Sn_d 06Sep2000                :
 energy of atom  1       EATOM=-1893.1092
 kinetic energy error for atom=    0.0334 (will be added to EATOM!!)
  PAW_PBE Te 08Apr2002                  :
 energy of atom  2       EATOM= -223.2721
 kinetic energy error for atom=    0.0026 (will be added to EATOM!!)
 
 
 POSCAR: Sn Te                                   
  positions in direct lattice
  No initial velocities read in
 exchange correlation table for  LEXCH =        8
   RHO(1)=    0.500       N(1)  =     2000
   RHO(2)=  100.500       N(2)  =     4000
 


--------------------------------------------------------------------------------------------------------


 ion  position               nearest neighbor table
   1  0.000  0.000  0.000-   2 3.16   2 3.16   2 3.16   2 3.16   2 3.16   2 3.16
   2  0.500  0.500  0.500-   1 3.16   1 3.16   1 3.16   1 3.16   1 3.16   1 3.16
 
  LATTYP: Found a face centered cubic cell.
 ALAT       =     6.3180001411
  
  Lattice vectors:
  
 A1 = (   0.0000000000,   3.1590000705,   3.1590000705)
 A2 = (   3.1590000705,   0.0000000000,   3.1590000705)
 A3 = (   3.1590000705,   3.1590000705,   0.0000000000)


Analysis of symmetry for initial positions (statically):
=====================================================================
 Subroutine PRICEL returns:
 Original cell was already a primitive cell.
 

 Routine SETGRP: Setting up the symmetry group for a 
 face centered cubic supercell.


 Subroutine GETGRP returns: Found 48 space group operations
 (whereof 48 operations were pure point group operations)
 out of a pool of 48 trial point group operations.


The static configuration has the point symmetry O_h .


Analysis of symmetry for dynamics (positions and initial velocities):
=====================================================================
 Subroutine PRICEL returns:
 Original cell was already a primitive cell.
 

 Routine SETGRP: Setting up the symmetry group for a 
 face centered cubic supercell.


 Subroutine GETGRP returns: Found 48 space group operations
 (whereof 48 operations were pure point group operations)
 out of a pool of 48 trial point group operations.


The dynamic configuration has the point symmetry O_h .


 irot  :   1
 --------------------------------------------------------------------
 isymop:   1   0   0
           0   1   0
           0   0   1

 gtrans:     0.0000000     0.0000000     0.0000000

 ptrans:     0.0000000     0.0000000     0.0000000
 rotmap:
 (   1->   1)  (   2->   2) 


 irot  :   2
 --------------------------------------------------------------------
 isymop:  -1   0   0
           0  -1   0
           0   0  -1

 gtrans:     0.0000000     0.0000000     0.0000000

 ptrans:     0.0000000     0.0000000     0.0000000
 rotmap:
 (   1->   1)  (   2->   2) 


 irot  :   3
 --------------------------------------------------------------------
 isymop:   0   0   1
           1   0   0
           0   1   0

 gtrans:     0.0000000     0.0000000     0.0000000

 ptrans:     0.0000000     0.0000000     0.0000000
 rotmap:
 (   1->   1)  (   2->   2) 


 irot  :   4
 --------------------------------------------------------------------
 isymop:   0   0  -1
          -1   0   0
           0  -1   0

 gtrans:     0.0000000     0.0000000     0.0000000

 ptrans:     0.0000000     0.0000000     0.0000000
 rotmap:
 (   1->   1)  (   2->   2) 


 irot  :   5
 --------------------------------------------------------------------
 isymop:   0   1   0
           0   0   1
           1   0   0

 gtrans:     0.0000000     0.0000000     0.0000000

 ptrans:     0.0000000     0.0000000     0.0000000
 rotmap:
 (   1->   1)  (   2->   2) 


 irot  :   6
 --------------------------------------------------------------------
 isymop:   0  -1   0
           0   0  -1
          -1   0   0

 gtrans:     0.0000000     0.0000000     0.0000000

 ptrans:     0.0000000     0.0000000     0.0000000
 rotmap:
 (   1->   1)  (   2->   2) 


 irot  :   7
 --------------------------------------------------------------------
 isymop:   1   1   1
           0   0  -1
          -1   0   0

 gtrans:     0.0000000     0.0000000     0.0000000

 ptrans:     0.0000000     0.0000000     0.0000000
 rotmap:
 (   1->   1)  (   2->   2) 


 irot  :   8
 --------------------------------------------------------------------
 isymop:  -1  -1  -1
           0   0   1
           1   0   0

 gtrans:     0.0000000     0.0000000     0.0000000

 ptrans:     0.0000000     0.0000000     0.0000000
 rotmap:
 (   1->   1)  (   2->   2) 


 irot  :   9
 --------------------------------------------------------------------
 isymop:   1   1   1
           0  -1   0
           0   0  -1

 gtrans:     0.0000000     0.0000000     0.0000000

 ptrans:     0.0000000     0.0000000     0.0000000
 rotmap:
 (   1->   1)  (   2->   2) 


 irot  :  10
 --------------------------------------------------------------------
 isymop:  -1  -1  -1
           0   1   0
           0   0   1

 gtrans:     0.0000000     0.0000000     0.0000000

 ptrans:     0.0000000     0.0000000     0.0000000
 rotmap:
 (   1->   1)  (   2->   2) 


 irot  :  11
 --------------------------------------------------------------------
 isymop:   1   1   1
          -1   0   0
           0  -1   0

 gtrans:     0.0000000     0.0000000     0.0000000

 ptrans:     0.0000000     0.0000000     0.0000000
 rotmap:
 (   1->   1)  (   2->   2) 


 irot  :  12
 --------------------------------------------------------------------
 isymop:  -1  -1  -1
           1   0   0
           0   1   0

 gtrans:     0.0000000     0.0000000     0.0000000

 ptrans:     0.0000000     0.0000000     0.0000000
 rotmap:
 (   1->   1)  (   2->   2) 


 irot  :  13
 --------------------------------------------------------------------
 isymop:   0   1   0
           1   0   0
          -1  -1  -1

 gtrans:     0.0000000     0.0000000     0.0000000

 ptrans:     0.0000000     0.0000000     0.0000000
 rotmap:
 (   1->   1)  (   2->   2) 


 irot  :  14
 --------------------------------------------------------------------
 isymop:   0  -1   0
          -1   0   0
           1   1   1

 gtrans:     0.0000000     0.0000000     0.0000000

 ptrans:     0.0000000     0.0000000     0.0000000
 rotmap:
 (   1->   1)  (   2->   2) 


 irot  :  15
 --------------------------------------------------------------------
 isymop:   1   0   0
           0   0   1
          -1  -1  -1

 gtrans:     0.0000000     0.0000000     0.0000000

 ptrans:     0.0000000     0.0000000     0.0000000
 rotmap:
 (   1->   1)  (   2->   2) 


 irot  :  16
 --------------------------------------------------------------------
 isymop:  -1   0   0
           0   0  -1
           1   1   1

 gtrans:     0.0000000     0.0000000     0.0000000

 ptrans:     0.0000000     0.0000000     0.0000000
 rotmap:
 (   1->   1)  (   2->   2) 


 irot  :  17
 --------------------------------------------------------------------
 isymop:   0   0   1
           0   1   0
          -1  -1  -1

 gtrans:     0.0000000     0.0000000     0.0000000

 ptrans:     0.0000000     0.0000000     0.0000000
 rotmap:
 (   1->   1)  (   2->   2) 


 irot  :  18
 --------------------------------------------------------------------
 isymop:   0   0  -1
           0  -1   0
           1   1   1

 gtrans:     0.0000000     0.0000000     0.0000000

 ptrans:     0.0000000     0.0000000     0.0000000
 rotmap:
 (   1->   1)  (   2->   2) 


 irot  :  19
 --------------------------------------------------------------------
 isymop:   0   0  -1
           1   1   1
           0  -1   0

 gtrans:     0.0000000     0.0000000     0.0000000

 ptrans:     0.0000000     0.0000000     0.0000000
 rotmap:
 (   1->   1)  (   2->   2) 


 irot  :  20
 --------------------------------------------------------------------
 isymop:   0   0   1
          -1  -1  -1
           0   1   0

 gtrans:     0.0000000     0.0000000     0.0000000

 ptrans:     0.0000000     0.0000000     0.0000000
 rotmap:
 (   1->   1)  (   2->   2) 


 irot  :  21
 --------------------------------------------------------------------
 isymop:   0  -1   0
           1   1   1
          -1   0   0

 gtrans:     0.0000000     0.0000000     0.0000000

 ptrans:     0.0000000     0.0000000     0.0000000
 rotmap:
 (   1->   1)  (   2->   2) 


 irot  :  22
 --------------------------------------------------------------------
 isymop:   0   1   0
          -1  -1  -1
           1   0   0

 gtrans:     0.0000000     0.0000000     0.0000000

 ptrans:     0.0000000     0.0000000     0.0000000
 rotmap:
 (   1->   1)  (   2->   2) 


 irot  :  23
 --------------------------------------------------------------------
 isymop:  -1   0   0
           1   1   1
           0   0  -1

 gtrans:     0.0000000     0.0000000     0.0000000

 ptrans:     0.0000000     0.0000000     0.0000000
 rotmap:
 (   1->   1)  (   2->   2) 


 irot  :  24
 --------------------------------------------------------------------
 isymop:   1   0   0
          -1  -1  -1
           0   0   1

 gtrans:     0.0000000     0.0000000     0.0000000

 ptrans:     0.0000000     0.0000000     0.0000000
 rotmap:
 (   1->   1)  (   2->   2) 


 irot  :  25
 --------------------------------------------------------------------
 isymop:  -1  -1  -1
           0   1   0
           1   0   0

 gtrans:     0.0000000     0.0000000     0.0000000

 ptrans:     0.0000000     0.0000000     0.0000000
 rotmap:
 (   1->   1)  (   2->   2) 


 irot  :  26
 --------------------------------------------------------------------
 isymop:   1   1   1
           0  -1   0
          -1   0   0

 gtrans:     0.0000000     0.0000000     0.0000000

 ptrans:     0.0000000     0.0000000     0.0000000
 rotmap:
 (   1->   1)  (   2->   2) 


 irot  :  27
 --------------------------------------------------------------------
 isymop:  -1  -1  -1
           1   0   0
           0   0   1

 gtrans:     0.0000000     0.0000000     0.0000000

 ptrans:     0.0000000     0.0000000     0.0000000
 rotmap:
 (   1->   1)  (   2->   2) 


 irot  :  28
 --------------------------------------------------------------------
 isymop:   1   1   1
          -1   0   0
           0   0  -1

 gtrans:     0.0000000     0.0000000     0.0000000

 ptrans:     0.0000000     0.0000000     0.0000000
 rotmap:
 (   1->   1)  (   2->   2) 


 irot  :  29
 --------------------------------------------------------------------
 isymop:  -1  -1  -1
           0   0   1
           0   1   0

 gtrans:     0.0000000     0.0000000     0.0000000

 ptrans:     0.0000000     0.0000000     0.0000000
 rotmap:
 (   1->   1)  (   2->   2) 


 irot  :  30
 --------------------------------------------------------------------
 isymop:   1   1   1
           0   0  -1
           0  -1   0

 gtrans:     0.0000000     0.0000000     0.0000000

 ptrans:     0.0000000     0.0000000     0.0000000
 rotmap:
 (   1->   1)  (   2->   2) 


 irot  :  31
 --------------------------------------------------------------------
 isymop:   0  -1   0
           0   0  -1
           1   1   1

 gtrans:     0.0000000     0.0000000     0.0000000

 ptrans:     0.0000000     0.0000000     0.0000000
 rotmap:
 (   1->   1)  (   2->   2) 


 irot  :  32
 --------------------------------------------------------------------
 isymop:   0   1   0
           0   0   1
          -1  -1  -1

 gtrans:     0.0000000     0.0000000     0.0000000

 ptrans:     0.0000000     0.0000000     0.0000000
 rotmap:
 (   1->   1)  (   2->   2) 


 irot  :  33
 --------------------------------------------------------------------
 isymop:  -1   0   0
           0  -1   0
           1   1   1

 gtrans:     0.0000000     0.0000000     0.0000000

 ptrans:     0.0000000     0.0000000     0.0000000
 rotmap:
 (   1->   1)  (   2->   2) 


 irot  :  34
 --------------------------------------------------------------------
 isymop:   1   0   0
           0   1   0
          -1  -1  -1

 gtrans:     0.0000000     0.0000000     0.0000000

 ptrans:     0.0000000     0.0000000     0.0000000
 rotmap:
 (   1->   1)  (   2->   2) 


 irot  :  35
 --------------------------------------------------------------------
 isymop:   0   0  -1
          -1   0   0
           1   1   1

 gtrans:     0.0000000     0.0000000     0.0000000

 ptrans:     0.0000000     0.0000000     0.0000000
 rotmap:
 (   1->   1)  (   2->   2) 


 irot  :  36
 --------------------------------------------------------------------
 isymop:   0   0   1
           1   0   0
          -1  -1  -1

 gtrans:     0.0000000     0.0000000     0.0000000

 ptrans:     0.0000000     0.0000000     0.0000000
 rotmap:
 (   1->   1)  (   2->   2) 


 irot  :  37
 --------------------------------------------------------------------
 isymop:   1   0   0
          -1  -1  -1
           0   1   0

 gtrans:     0.0000000     0.0000000     0.0000000

 ptrans:     0.0000000     0.0000000     0.0000000
 rotmap:
 (   1->   1)  (   2->   2) 


 irot  :  38
 --------------------------------------------------------------------
 isymop:  -1   0   0
           1   1   1
           0  -1   0

 gtrans:     0.0000000     0.0000000     0.0000000

 ptrans:     0.0000000     0.0000000     0.0000000
 rotmap:
 (   1->   1)  (   2->   2) 


 irot  :  39
 --------------------------------------------------------------------
 isymop:   0   0   1
          -1  -1  -1
           1   0   0

 gtrans:     0.0000000     0.0000000     0.0000000

 ptrans:     0.0000000     0.0000000     0.0000000
 rotmap:
 (   1->   1)  (   2->   2) 


 irot  :  40
 --------------------------------------------------------------------
 isymop:   0   0  -1
           1   1   1
          -1   0   0

 gtrans:     0.0000000     0.0000000     0.0000000

 ptrans:     0.0000000     0.0000000     0.0000000
 rotmap:
 (   1->   1)  (   2->   2) 


 irot  :  41
 --------------------------------------------------------------------
 isymop:   0   1   0
          -1  -1  -1
           0   0   1

 gtrans:     0.0000000     0.0000000     0.0000000

 ptrans:     0.0000000     0.0000000     0.0000000
 rotmap:
 (   1->   1)  (   2->   2) 


 irot  :  42
 --------------------------------------------------------------------
 isymop:   0  -1   0
           1   1   1
           0   0  -1

 gtrans:     0.0000000     0.0000000     0.0000000

 ptrans:     0.0000000     0.0000000     0.0000000
 rotmap:
 (   1->   1)  (   2->   2) 


 irot  :  43
 --------------------------------------------------------------------
 isymop:  -1   0   0
           0   0  -1
           0  -1   0

 gtrans:     0.0000000     0.0000000     0.0000000

 ptrans:     0.0000000     0.0000000     0.0000000
 rotmap:
 (   1->   1)  (   2->   2) 


 irot  :  44
 --------------------------------------------------------------------
 isymop:   1   0   0
           0   0   1
           0   1   0

 gtrans:     0.0000000     0.0000000     0.0000000

 ptrans:     0.0000000     0.0000000     0.0000000
 rotmap:
 (   1->   1)  (   2->   2) 


 irot  :  45
 --------------------------------------------------------------------
 isymop:   0  -1   0
          -1   0   0
           0   0  -1

 gtrans:     0.0000000     0.0000000     0.0000000

 ptrans:     0.0000000     0.0000000     0.0000000
 rotmap:
 (   1->   1)  (   2->   2) 


 irot  :  46
 --------------------------------------------------------------------
 isymop:   0   1   0
           1   0   0
           0   0   1

 gtrans:     0.0000000     0.0000000     0.0000000

 ptrans:     0.0000000     0.0000000     0.0000000
 rotmap:
 (   1->   1)  (   2->   2) 


 irot  :  47
 --------------------------------------------------------------------
 isymop:   0   0  -1
           0  -1   0
          -1   0   0

 gtrans:     0.0000000     0.0000000     0.0000000

 ptrans:     0.0000000     0.0000000     0.0000000
 rotmap:
 (   1->   1)  (   2->   2) 


 irot  :  48
 --------------------------------------------------------------------
 isymop:   0   0   1
           0   1   0
           1   0   0

 gtrans:     0.0000000     0.0000000     0.0000000

 ptrans:     0.0000000     0.0000000     0.0000000
 rotmap:
 (   1->   1)  (   2->   2) 
 
 
 KPOINTS: Automatic kpoint scheme                 

Automatic generation of k-mesh.
 generate k-points for:    8    8    8
Space group operators:
 irot       det(A)        alpha          n_x          n_y          n_z        tau_x        tau_y        tau_z
    1     1.000000     0.000001     1.000000     0.000000     0.000000     0.000000     0.000000     0.000000
    2    -1.000000     0.000001     1.000000     0.000000     0.000000     0.000000     0.000000     0.000000
    3     1.000000   120.000000    -0.577350    -0.577350    -0.577350     0.000000     0.000000     0.000000
    4    -1.000000   120.000000    -0.577350    -0.577350    -0.577350     0.000000     0.000000     0.000000
    5     1.000000   120.000000     0.577350     0.577350     0.577350     0.000000     0.000000     0.000000
    6    -1.000000   120.000000     0.577350     0.577350     0.577350     0.000000     0.000000     0.000000
    7     1.000000    90.000000     0.000000     0.000000    -1.000000     0.000000     0.000000     0.000000
    8    -1.000000    90.000000     0.000000     0.000000    -1.000000     0.000000     0.000000     0.000000
    9     1.000000   180.000000     0.000000     0.707107     0.707107     0.000000     0.000000     0.000000
   10    -1.000000   180.000000     0.000000     0.707107     0.707107     0.000000     0.000000     0.000000
   11     1.000000    90.000000     0.000000     1.000000     0.000000     0.000000     0.000000     0.000000
   12    -1.000000    90.000000     0.000000     1.000000     0.000000     0.000000     0.000000     0.000000
   13     1.000000   180.000000     0.000000     0.000000     1.000000     0.000000     0.000000     0.000000
   14    -1.000000   180.000000     0.000000     0.000000     1.000000     0.000000     0.000000     0.000000
   15     1.000000   120.000000    -0.577350     0.577350     0.577350     0.000000     0.000000     0.000000
   16    -1.000000   120.000000    -0.577350     0.577350     0.577350     0.000000     0.000000     0.000000
   17     1.000000   120.000000    -0.577350     0.577350    -0.577350     0.000000     0.000000     0.000000
   18    -1.000000   120.000000    -0.577350     0.577350    -0.577350     0.000000     0.000000     0.000000
   19     1.000000    90.000000     0.000000     0.000000     1.000000     0.000000     0.000000     0.000000
   20    -1.000000    90.000000     0.000000     0.000000     1.000000     0.000000     0.000000     0.000000
   21     1.000000    90.000000    -1.000000     0.000000     0.000000     0.000000     0.000000     0.000000
   22    -1.000000    90.000000    -1.000000     0.000000     0.000000     0.000000     0.000000     0.000000
   23     1.000000   180.000000     0.707107     0.000000     0.707107     0.000000     0.000000     0.000000
   24    -1.000000   180.000000     0.707107     0.000000     0.707107     0.000000     0.000000     0.000000
   25     1.000000   120.000000     0.577350    -0.577350     0.577350     0.000000     0.000000     0.000000
   26    -1.000000   120.000000     0.577350    -0.577350     0.577350     0.000000     0.000000     0.000000
   27     1.000000   120.000000    -0.577350    -0.577350     0.577350     0.000000     0.000000     0.000000
   28    -1.000000   120.000000    -0.577350    -0.577350     0.577350     0.000000     0.000000     0.000000
   29     1.000000   180.000000     1.000000     0.000000     0.000000     0.000000     0.000000     0.000000
   30    -1.000000   180.000000     1.000000     0.000000     0.000000     0.000000     0.000000     0.000000
   31     1.000000    90.000000     0.000000    -1.000000     0.000000     0.000000     0.000000     0.000000
   32    -1.000000    90.000000     0.000000    -1.000000     0.000000     0.000000     0.000000     0.000000
   33     1.000000   180.000000     0.707107     0.707107     0.000000     0.000000     0.000000     0.000000
   34    -1.000000   180.000000     0.707107     0.707107     0.000000     0.000000     0.000000     0.000000
   35     1.000000    90.000000     1.000000     0.000000     0.000000     0.000000     0.000000     0.000000
   36    -1.000000    90.000000     1.000000     0.000000     0.000000     0.000000     0.000000     0.000000
   37     1.000000   120.000000     0.577350    -0.577350    -0.577350     0.000000     0.000000     0.000000
   38    -1.000000   120.000000     0.577350    -0.577350    -0.577350     0.000000     0.000000     0.000000
   39     1.000000   180.000000     0.000000     1.000000     0.000000     0.000000     0.000000     0.000000
   40    -1.000000   180.000000     0.000000     1.000000     0.000000     0.000000     0.000000     0.000000
   41     1.000000   120.000000     0.577350     0.577350    -0.577350     0.000000     0.000000     0.000000
   42    -1.000000   120.000000     0.577350     0.577350    -0.577350     0.000000     0.000000     0.000000
   43     1.000000   180.000000     0.000000    -0.707107     0.707107     0.000000     0.000000     0.000000
   44    -1.000000   180.000000     0.000000    -0.707107     0.707107     0.000000     0.000000     0.000000
   45     1.000000   180.000000     0.707107    -0.707107     0.000000     0.000000     0.000000     0.000000
   46    -1.000000   180.000000     0.707107    -0.707107     0.000000     0.000000     0.000000     0.000000
   47     1.000000   180.000000     0.707107     0.000000    -0.707107     0.000000     0.000000     0.000000
   48    -1.000000   180.000000     0.707107     0.000000    -0.707107     0.000000     0.000000     0.000000
 
 Subroutine IBZKPT returns following result:
 ===========================================
 
 Found     29 irreducible k-points:
 
 Following reciprocal coordinates:
            Coordinates               Weight
  0.000000  0.000000  0.000000      1.000000
  0.125000  0.000000  0.000000      8.000000
  0.250000  0.000000  0.000000      8.000000
  0.375000  0.000000  0.000000      8.000000
  0.500000  0.000000  0.000000      4.000000
  0.125000  0.125000  0.000000      6.000000
  0.250000  0.125000  0.000000     24.000000
  0.375000  0.125000  0.000000     24.000000
  0.500000  0.125000  0.000000     24.000000
 -0.375000  0.125000  0.000000     24.000000
 -0.250000  0.125000  0.000000     24.000000
 -0.125000  0.125000  0.000000     12.000000
  0.250000  0.250000  0.000000      6.000000
  0.375000  0.250000  0.000000     24.000000
  0.500000  0.250000  0.000000     24.000000
 -0.375000  0.250000  0.000000     24.000000
 -0.250000  0.250000  0.000000     12.000000
  0.375000  0.375000  0.000000      6.000000
  0.500000  0.375000  0.000000     24.000000
 -0.375000  0.375000  0.000000     12.000000
  0.500000  0.500000  0.000000      3.000000
  0.375000  0.250000  0.125000     24.000000
  0.500000  0.250000  0.125000     48.000000
 -0.375000  0.250000  0.125000     24.000000
  0.500000  0.375000  0.125000     24.000000
 -0.375000  0.375000  0.125000     48.000000
 -0.250000  0.375000  0.125000     24.000000
 -0.375000  0.500000  0.125000     12.000000
 -0.250000  0.500000  0.250000      6.000000
 
 Following cartesian coordinates:
            Coordinates               Weight
  0.000000  0.000000  0.000000      1.000000
 -0.019785  0.019785  0.019785      8.000000
 -0.039569  0.039569  0.039569      8.000000
 -0.059354  0.059354  0.059354      8.000000
 -0.079139  0.079139  0.079139      4.000000
  0.000000  0.000000  0.039569      6.000000
 -0.019785  0.019785  0.059354     24.000000
 -0.039569  0.039569  0.079139     24.000000
 -0.059354  0.059354  0.098924     24.000000
  0.079139 -0.079139 -0.039569     24.000000
  0.059354 -0.059354 -0.019785     24.000000
  0.039569 -0.039569  0.000000     12.000000
  0.000000  0.000000  0.079139      6.000000
 -0.019785  0.019785  0.098924     24.000000
 -0.039569  0.039569  0.118708     24.000000
  0.098924 -0.098924 -0.019785     24.000000
  0.079139 -0.079139  0.000000     12.000000
  0.000000  0.000000  0.118708      6.000000
 -0.019785  0.019785  0.138493     24.000000
  0.118708 -0.118708  0.000000     12.000000
  0.000000  0.000000  0.158278      3.000000
  0.000000  0.039569  0.079139     24.000000
 -0.019785  0.059354  0.098924     48.000000
  0.118708 -0.079139 -0.039569     24.000000
  0.000000  0.039569  0.118708     24.000000
  0.138493 -0.098924 -0.019785     48.000000
  0.118708 -0.079139  0.000000     24.000000
  0.158278 -0.118708  0.000000     12.000000
  0.158278 -0.079139  0.000000      6.000000
 
 TETIRR: Found     76 inequivalent tetrahedra from     3072


--------------------------------------------------------------------------------------------------------




 Dimension of arrays:
   k-points           NKPTS =     29   k-points in BZ     NKDIM =     29   number of bands    NBANDS=     16
   number of dos      NEDOS =    301   number of ions     NIONS =      2
   non local maximal  LDIM  =      6   non local SUM 2l+1 LMDIM =     18
   total plane-waves  NPLWV =  21952
   max r-space proj   IRMAX =   3970   max aug-charges    IRDMAX=   7579
   dimension x,y,z NGX =    28 NGY =   28 NGZ =   28
   dimension x,y,z NGXF=    40 NGYF=   40 NGZF=   40
   support grid    NGXF=    40 NGYF=   40 NGZF=   40
   ions per type =               1   1
 NGX,Y,Z   is equivalent  to a cutoff of  10.42, 10.42, 10.42 a.u.
 NGXF,Y,Z  is equivalent  to a cutoff of  14.88, 14.88, 14.88 a.u.


 I would recommend the setting:
   dimension x,y,z NGX =    25 NGY =   25 NGZ =   25
 SYSTEM =  unknown system                          
 POSCAR =  Sn Te                                   

 Startparameter for this run:
   NWRITE =      2    write-flag & timer
   PREC   = high      normal or accurate (medium, high low for compatibility)
   ISTART =      0    job   : 0-new  1-cont  2-samecut
   ICHARG =      2    charge: 1-file 2-atom 10-const
   ISPIN  =      1    spin polarized calculation?
   LNONCOLLINEAR =      F non collinear calculations
   LSORBIT =      F    spin-orbit coupling
   INIWAV =      1    electr: 0-lowe 1-rand  2-diag
   LASPH  =      F    aspherical Exc in radial PAW
   METAGGA=      F    non-selfconsistent MetaGGA calc.

 Electronic Relaxation 1
   ENCUT  =  301.4 eV  22.15 Ry    4.71 a.u.   6.32  6.32  6.32*2*pi/ulx,y,z
   ENINI  =  301.4     initial cutoff
   ENAUG  =  439.8 eV  augmentation charge cutoff
   NELM   =    300;   NELMIN=  2; NELMDL= -5     # of ELM steps 
   EDIFF  = 0.1E-05   stopping-criterion for ELM
   LREAL  =      T    real-space projection
   NLSPLINE    = F    spline interpolate recip. space projectors
   LCOMPAT=      F    compatible to vasp.4.4
   GGA_COMPAT  = T    GGA compatible to vasp.4.4-vasp.4.6
   LMAXPAW     = -100 max onsite density
   LMAXMIX     =    4 max onsite mixed and CHGCAR
   VOSKOWN=      0    Vosko Wilk Nusair interpolation
   ROPT   =   -0.00040  -0.00040
 Ionic relaxation
   EDIFFG = 0.1E-04   stopping-criterion for IOM
   NSW    =      0    number of steps for IOM
   NBLOCK =      1;   KBLOCK =      1    inner block; outer block 
   IBRION =     -1    ionic relax: 0-MD 1-quasi-New 2-CG
   NFREE  =      0    steps in history (QN), initial steepest desc. (CG)
   ISIF   =      2    stress and relaxation
   IWAVPR =     10    prediction:  0-non 1-charg 2-wave 3-comb
   ISYM   =      2    0-nonsym 1-usesym 2-fastsym
   LCORR  =      T    Harris-Foulkes like correction to forces

   POTIM  = 0.5000    time-step for ionic-motion
   TEIN   =    0.0    initial temperature
   TEBEG  =    0.0;   TEEND  =   0.0 temperature during run
   SMASS  =  -3.00    Nose mass-parameter (am)
   estimated Nose-frequenzy (Omega)   =  0.10E-29 period in steps =****** mass=  -0.456E-27a.u.
   SCALEE = 1.0000    scale energy and forces
   NPACO  =    256;   APACO  = 16.0  distance and # of slots for P.C.
   PSTRESS=    0.0 pullay stress

  Mass of Ions in am
   POMASS = 118.71127.60
  Ionic Valenz
   ZVAL   =  14.00  6.00
  Atomic Wigner-Seitz radii
   RWIGS  =  -1.00 -1.00
  virtual crystal weights 
   VCA    =   1.00  1.00
   NELECT =      20.0000    total number of electrons
   NUPDOWN=      -1.0000    fix difference up-down

 DOS related values:
   EMIN   =  10.00;   EMAX   =-10.00  energy-range for DOS
   EFERMI =   0.00
   ISMEAR =    -5;   SIGMA  =   0.20  broadening in eV -4-tet -1-fermi 0-gaus

 Electronic relaxation 2 (details)
   IALGO  =     38    algorithm
   LDIAG  =      T    sub-space diagonalisation (order eigenvalues)
   LSUBROT=      T    optimize rotation matrix (better conditioning)
   TURBO    =      0    0=normal 1=particle mesh
   IRESTART =      0    0=no restart 2=restart with 2 vectors
   NREBOOT  =      0    no. of reboots
   NMIN     =      0    reboot dimension
   EREF     =   0.00    reference energy to select bands
   IMIX   =      4    mixing-type and parameters
     AMIX     =   0.40;   BMIX     =  1.00
     AMIX_MAG =   1.60;   BMIX_MAG =  1.00
     AMIN     =   0.10
     WC   =   100.;   INIMIX=   1;  MIXPRE=   1;  MAXMIX= -45

 Intra band minimization:
   WEIMIN = 0.0000     energy-eigenvalue tresh-hold
   EBREAK =  0.16E-07  absolut break condition
   DEPER  =   0.30     relativ break condition  

   TIME   =   0.40     timestep for ELM

  volume/ion in A,a.u.               =      31.52       212.74
  Fermi-wavevector in a.u.,A,eV,Ry     =   1.116499  2.109878 16.960630  1.246571
  Thomas-Fermi vector in A             =   2.253114
 
 Write flags
   LWAVE  =      F    write WAVECAR
   LCHARG =      T    write CHGCAR
   LVTOT  =      F    write LOCPOT, total local potential
   LVHAR  =      F    write LOCPOT, Hartree potential only
   LELF   =      F    write electronic localiz. function (ELF)
   LORBIT =     11    0 simple, 1 ext, 2 COOP (PROOUT)


 Dipole corrections
   LMONO  =      F    monopole corrections only (constant potential shift)
   LDIPOL =      F    correct potential (dipole corrections)
   IDIPOL =      0    1-x, 2-y, 3-z, 4-all directions 
   EPSILON=  1.0000000 bulk dielectric constant

 Exchange correlation treatment:
   GGA     =    --    GGA type
   LEXCH   =     8    internal setting for exchange type
   VOSKOWN=      0    Vosko Wilk Nusair interpolation
   LHFCALC =     F    Hartree Fock is set to
   LHFONE  =     F    Hartree Fock one center treatment
   AEXX    =    0.0000 exact exchange contribution

 Linear response parameters
   LEPSILON=     F    determine dielectric tensor
   LRPA    =     F    only Hartree local field effects (RPA)
   LNABLA  =     F    use nabla operator in PAW spheres
   LVEL    =     F    velocity operator in full k-point grid
   LINTERFAST=   F  fast interpolation
   KINTER  =     0    interpolate to denser k-point grid
   CSHIFT  =0.1000    complex shift for real part using Kramers Kronig
   OMEGAMAX=  -1.0    maximum frequency
   DEG_THRESHOLD= 0.2000000E-02 threshold for treating states as degnerate
   RTIME   =    0.100 relaxation time in fs

 Orbital magnetization related:
   ORBITALMAG=     F  switch on orbital magnetization
   LCHIMAG   =     F  perturbation theory with respect to B field
   DQ        =  0.001000  dq finite difference perturbation B field



--------------------------------------------------------------------------------------------------------


 Static calculation
 charge density and potential will be updated during run
 non-spin polarized calculation
 Variant of blocked Davidson
 Davidson routine will perform the subspace rotation
 perform sub-space diagonalisation
    after iterative eigenvector-optimisation
 modified Broyden-mixing scheme, WC =      100.0
 initial mixing is a Kerker type mixing with AMIX =  0.4000 and BMIX =      1.0000
 Hartree-type preconditioning will be used
 using additional bands            6
 real space projection scheme for non local part
 use partial core corrections
 calculate Harris-corrections to forces 
   (improved forces if not selfconsistent)
 use gradient corrections 
 use of overlap-Matrix (Vanderbilt PP)
 Fermi weights with tetrahedron method with Bloechl corrections


--------------------------------------------------------------------------------------------------------


  energy-cutoff  :      301.35
  volume of cell :       63.05
      direct lattice vectors                 reciprocal lattice vectors
     0.000000000  3.159000071  3.159000071    -0.158277933  0.158277933  0.158277933
     3.159000071  0.000000000  3.159000071     0.158277933 -0.158277933  0.158277933
     3.159000071  3.159000071  0.000000000     0.158277933  0.158277933 -0.158277933

  length of vectors
     4.467500743  4.467500743  4.467500743     0.274145421  0.274145421  0.274145421


 
 k-points in units of 2pi/SCALE and weight: Automatic kpoint scheme                 
   0.00000000  0.00000000  0.00000000       0.002
  -0.01978474  0.01978474  0.01978474       0.016
  -0.03956948  0.03956948  0.03956948       0.016
  -0.05935422  0.05935422  0.05935422       0.016
  -0.07913897  0.07913897  0.07913897       0.008
   0.00000000  0.00000000  0.03956948       0.012
  -0.01978474  0.01978474  0.05935422       0.047
  -0.03956948  0.03956948  0.07913897       0.047
  -0.05935422  0.05935422  0.09892371       0.047
   0.07913897 -0.07913897 -0.03956948       0.047
   0.05935422 -0.05935422 -0.01978474       0.047
   0.03956948 -0.03956948  0.00000000       0.023
   0.00000000  0.00000000  0.07913897       0.012
  -0.01978474  0.01978474  0.09892371       0.047
  -0.03956948  0.03956948  0.11870845       0.047
   0.09892371 -0.09892371 -0.01978474       0.047
   0.07913897 -0.07913897  0.00000000       0.023
   0.00000000  0.00000000  0.11870845       0.012
  -0.01978474  0.01978474  0.13849319       0.047
   0.11870845 -0.11870845  0.00000000       0.023
   0.00000000  0.00000000  0.15827793       0.006
   0.00000000  0.03956948  0.07913897       0.047
  -0.01978474  0.05935422  0.09892371       0.094
   0.11870845 -0.07913897 -0.03956948       0.047
   0.00000000  0.03956948  0.11870845       0.047
   0.13849319 -0.09892371 -0.01978474       0.094
   0.11870845 -0.07913897  0.00000000       0.047
   0.15827793 -0.11870845  0.00000000       0.023
   0.15827793 -0.07913897  0.00000000       0.012
 
 k-points in reciprocal lattice and weights: Automatic kpoint scheme                 
   0.00000000  0.00000000  0.00000000       0.002
   0.12500000  0.00000000  0.00000000       0.016
   0.25000000  0.00000000  0.00000000       0.016
   0.37500000  0.00000000  0.00000000       0.016
   0.50000000  0.00000000  0.00000000       0.008
   0.12500000  0.12500000  0.00000000       0.012
   0.25000000  0.12500000  0.00000000       0.047
   0.37500000  0.12500000  0.00000000       0.047
   0.50000000  0.12500000  0.00000000       0.047
  -0.37500000  0.12500000  0.00000000       0.047
  -0.25000000  0.12500000  0.00000000       0.047
  -0.12500000  0.12500000  0.00000000       0.023
   0.25000000  0.25000000  0.00000000       0.012
   0.37500000  0.25000000  0.00000000       0.047
   0.50000000  0.25000000  0.00000000       0.047
  -0.37500000  0.25000000  0.00000000       0.047
  -0.25000000  0.25000000  0.00000000       0.023
   0.37500000  0.37500000  0.00000000       0.012
   0.50000000  0.37500000  0.00000000       0.047
  -0.37500000  0.37500000  0.00000000       0.023
   0.50000000  0.50000000  0.00000000       0.006
   0.37500000  0.25000000  0.12500000       0.047
   0.50000000  0.25000000  0.12500000       0.094
  -0.37500000  0.25000000  0.12500000       0.047
   0.50000000  0.37500000  0.12500000       0.047
  -0.37500000  0.37500000  0.12500000       0.094
  -0.25000000  0.37500000  0.12500000       0.047
  -0.37500000  0.50000000  0.12500000       0.023
  -0.25000000  0.50000000  0.25000000       0.012
 
 position of ions in fractional coordinates (direct lattice) 
   0.00000000  0.00000000  0.00000000
   0.50000000  0.50000000  0.50000000
 
 position of ions in cartesian coordinates  (Angst):
   0.00000000  0.00000000  0.00000000
   3.15900007  3.15900007  3.15900007
 


--------------------------------------------------------------------------------------------------------


 k-point  1 :   0.0000 0.0000 0.0000  plane waves:     725
 k-point  2 :   0.1250 0.0000 0.0000  plane waves:     743
 k-point  3 :   0.2500 0.0000 0.0000  plane waves:     754
 k-point  4 :   0.3750 0.0000 0.0000  plane waves:     763
 k-point  5 :   0.5000 0.0000 0.0000  plane waves:     754
 k-point  6 :   0.1250 0.1250 0.0000  plane waves:     745
 k-point  7 :   0.2500 0.1250 0.0000  plane waves:     757
 k-point  8 :   0.3750 0.1250 0.0000  plane waves:     746
 k-point  9 :   0.5000 0.1250 0.0000  plane waves:     753
 k-point 10 :  -0.3750 0.1250 0.0000  plane waves:     750
 k-point 11 :  -0.2500 0.1250 0.0000  plane waves:     748
 k-point 12 :  -0.1250 0.1250 0.0000  plane waves:     753
 k-point 13 :   0.2500 0.2500 0.0000  plane waves:     729
 k-point 14 :   0.3750 0.2500 0.0000  plane waves:     751
 k-point 15 :   0.5000 0.2500 0.0000  plane waves:     748
 k-point 16 :  -0.3750 0.2500 0.0000  plane waves:     744
 k-point 17 :  -0.2500 0.2500 0.0000  plane waves:     754
 k-point 18 :   0.3750 0.3750 0.0000  plane waves:     753
 k-point 19 :   0.5000 0.3750 0.0000  plane waves:     747
 k-point 20 :  -0.3750 0.3750 0.0000  plane waves:     740
 k-point 21 :   0.5000 0.5000 0.0000  plane waves:     740
 k-point 22 :   0.3750 0.2500 0.1250  plane waves:     755
 k-point 23 :   0.5000 0.2500 0.1250  plane waves:     747
 k-point 24 :  -0.3750 0.2500 0.1250  plane waves:     750
 k-point 25 :   0.5000 0.3750 0.1250  plane waves:     755
 k-point 26 :  -0.3750 0.3750 0.1250  plane waves:     748
 k-point 27 :  -0.2500 0.3750 0.1250  plane waves:     747
 k-point 28 :  -0.3750 0.5000 0.1250  plane waves:     742
 k-point 29 :  -0.2500 0.5000 0.2500  plane waves:     744

 maximum and minimum number of plane-waves per node :       134      116

 maximum number of plane-waves:       763
 maximum index in each direction: 
   IXMAX=    6   IYMAX=    6   IZMAX=    6
   IXMIN=   -6   IYMIN=   -6   IZMIN=   -6

 NGX is ok and might be reduce to  26
 NGY is ok and might be reduce to  26
 NGZ is ok and might be reduce to  26

 real space projection operators:
  total allocation   :        829.51 KBytes
  max/ min on nodes  :        155.51        106.62


 parallel 3D FFT for wavefunctions:
    minimum data exchange during FFTs selected (reduces bandwidth)
 parallel 3D FFT for charge:
    minimum data exchange during FFTs selected (reduces bandwidth)


 total amount of memory used by VASP on root node    31394. kBytes
========================================================================

   base      :      30000. kBytes
   nonlr-proj:        313. kBytes
   fftplans  :        360. kBytes
   grid      :        432. kBytes
   one-center:         15. kBytes
   wavefun   :        274. kBytes
 
 Broyden mixing: mesh for mixing (old mesh)
   NGX = 13   NGY = 13   NGZ = 13
  (NGX  = 40   NGY  = 40   NGZ  = 40)
  gives a total of   2197 points

 initial charge density was supplied:
 charge density of overlapping atoms calculated
 number of electron      20.0000000 magnetization 
 keeping initial charge density in first step


--------------------------------------------------------------------------------------------------------


 Maximum index for non-local projection operator          704
 Maximum index for augmentation-charges          378 (set IRDMAX)


--------------------------------------------------------------------------------------------------------


 First call to EWALD:  gamma=   0.445
 Maximum number of real-space cells 3x 3x 3
 Maximum number of reciprocal cells 3x 3x 3

 FEWALD executed in parallel
    FEWALD:  cpu time    0.00: real time    0.00


----------------------------------------- Iteration    1(   1)  ---------------------------------------


    POTLOK:  cpu time    0.01: real time    0.01
    SETDIJ:  cpu time    0.01: real time    0.01
     EDDAV:  cpu time    0.20: real time    0.21
 BZINTS: Fermi energy: 13.639021; 20.000000 electrons
         Band energy: -22.669258;  BLOECHL correction: -0.222008
       DOS:  cpu time    0.00: real time    0.01
    --------------------------------------------
      LOOP:  cpu time    0.22: real time    0.23

 eigenvalue-minimisations  :   928
 total energy-change (2. order) : 0.1020718E+03  (-0.7278922E+03)
 number of electron      20.0000000 magnetization 
 augmentation part       20.0000000 magnetization 

 Free energy of the ion-electron system (eV)
  ---------------------------------------------------
  alpha Z        PSCENC =        26.74713621
  Ewald energy   TEWEN  =     -1420.79165657
  -1/2 Hartree   DENC   =      -627.57434011
  -exchange  EXHF       =         0.00000000
  -V(xc)+E(xc)   XCENC  =        28.76107026
  PAW double counting   =      1776.62621634    -1775.37266397
  entropy T*S    EENTRO =         0.00000000
  eigenvalues    EBANDS =       -22.66925786
  atomic energy  EATOM  =      2116.34525819
  ---------------------------------------------------
  free energy    TOTEN  =       102.07176250 eV

  energy without entropy =      102.07176250  energy(sigma->0) =      102.07176250


--------------------------------------------------------------------------------------------------------




----------------------------------------- Iteration    1(   2)  ---------------------------------------


     EDDAV:  cpu time    0.21: real time    0.21
 BZINTS: Fermi energy:  7.219446; 20.000000 electrons
         Band energy:-124.599880;  BLOECHL correction:  0.000000
       DOS:  cpu time    0.00: real time    0.00
    --------------------------------------------
      LOOP:  cpu time    0.21: real time    0.21

 eigenvalue-minimisations  :  1032
 total energy-change (2. order) :-0.1019306E+03  (-0.1004507E+03)
 number of electron      20.0000000 magnetization 
 augmentation part       20.0000000 magnetization 

 Free energy of the ion-electron system (eV)
  ---------------------------------------------------
  alpha Z        PSCENC =        26.74713621
  Ewald energy   TEWEN  =     -1420.79165657
  -1/2 Hartree   DENC   =      -627.57434011
  -exchange  EXHF       =         0.00000000
  -V(xc)+E(xc)   XCENC  =        28.76107026
  PAW double counting   =      1776.62621634    -1775.37266397
  entropy T*S    EENTRO =         0.00000000
  eigenvalues    EBANDS =      -124.59987986
  atomic energy  EATOM  =      2116.34525819
  ---------------------------------------------------
  free energy    TOTEN  =         0.14114049 eV

  energy without entropy =        0.14114049  energy(sigma->0) =        0.14114049


--------------------------------------------------------------------------------------------------------




----------------------------------------- Iteration    1(   3)  ---------------------------------------


     EDDAV:  cpu time    0.23: real time    0.41
 BZINTS: Fermi energy:  6.864912; 20.000000 electrons
         Band energy:-132.155220;  BLOECHL correction:  0.000000
       DOS:  cpu time    0.00: real time    0.00
    --------------------------------------------
      LOOP:  cpu time    0.23: real time    0.41

 eigenvalue-minimisations  :  1144
 total energy-change (2. order) :-0.7555340E+01  (-0.7541015E+01)
 number of electron      20.0000000 magnetization 
 augmentation part       20.0000000 magnetization 

 Free energy of the ion-electron system (eV)
  ---------------------------------------------------
  alpha Z        PSCENC =        26.74713621
  Ewald energy   TEWEN  =     -1420.79165657
  -1/2 Hartree   DENC   =      -627.57434011
  -exchange  EXHF       =         0.00000000
  -V(xc)+E(xc)   XCENC  =        28.76107026
  PAW double counting   =      1776.62621634    -1775.37266397
  entropy T*S    EENTRO =         0.00000000
  eigenvalues    EBANDS =      -132.15522004
  atomic energy  EATOM  =      2116.34525819
  ---------------------------------------------------
  free energy    TOTEN  =        -7.41419968 eV

  energy without entropy =       -7.41419968  energy(sigma->0) =       -7.41419968


--------------------------------------------------------------------------------------------------------




----------------------------------------- Iteration    1(   4)  ---------------------------------------


     EDDAV:  cpu time    0.38: real time    0.50
 BZINTS: Fermi energy:  6.872581; 20.000000 electrons
         Band energy:-132.334022;  BLOECHL correction:  0.000000
       DOS:  cpu time    0.00: real time    0.00
    --------------------------------------------
      LOOP:  cpu time    0.38: real time    0.51

 eigenvalue-minimisations  :  1176
 total energy-change (2. order) :-0.1788024E+00  (-0.1787773E+00)
 number of electron      20.0000000 magnetization 
 augmentation part       20.0000000 magnetization 

 Free energy of the ion-electron system (eV)
  ---------------------------------------------------
  alpha Z        PSCENC =        26.74713621
  Ewald energy   TEWEN  =     -1420.79165657
  -1/2 Hartree   DENC   =      -627.57434011
  -exchange  EXHF       =         0.00000000
  -V(xc)+E(xc)   XCENC  =        28.76107026
  PAW double counting   =      1776.62621634    -1775.37266397
  entropy T*S    EENTRO =         0.00000000
  eigenvalues    EBANDS =      -132.33402241
  atomic energy  EATOM  =      2116.34525819
  ---------------------------------------------------
  free energy    TOTEN  =        -7.59300206 eV

  energy without entropy =       -7.59300206  energy(sigma->0) =       -7.59300206


--------------------------------------------------------------------------------------------------------




----------------------------------------- Iteration    1(   5)  ---------------------------------------


     EDDAV:  cpu time    0.43: real time    0.49
 BZINTS: Fermi energy:  6.851332; 20.000000 electrons
         Band energy:-132.341160;  BLOECHL correction:  0.000000
       DOS:  cpu time    0.00: real time    0.00
    CHARGE:  cpu time    0.04: real time    0.05
    MIXING:  cpu time    0.00: real time    0.00
    --------------------------------------------
      LOOP:  cpu time    0.48: real time    0.55

 eigenvalue-minimisations  :  1304
 total energy-change (2. order) :-0.7137908E-02  (-0.7137829E-02)
 number of electron      19.9999914 magnetization 
 augmentation part        6.0792573 magnetization 

 Broyden mixing:
  rms(total) = 0.46966E+00    rms(broyden)= 0.46965E+00
  rms(prec ) = 0.60635E+00
  weight for this iteration     100.00

 Free energy of the ion-electron system (eV)
  ---------------------------------------------------
  alpha Z        PSCENC =        26.74713621
  Ewald energy   TEWEN  =     -1420.79165657
  -1/2 Hartree   DENC   =      -627.57434011
  -exchange  EXHF       =         0.00000000
  -V(xc)+E(xc)   XCENC  =        28.76107026
  PAW double counting   =      1776.62621634    -1775.37266397
  entropy T*S    EENTRO =         0.00000000
  eigenvalues    EBANDS =      -132.34116032
  atomic energy  EATOM  =      2116.34525819
  ---------------------------------------------------
  free energy    TOTEN  =        -7.60013997 eV

  energy without entropy =       -7.60013997  energy(sigma->0) =       -7.60013997


--------------------------------------------------------------------------------------------------------




----------------------------------------- Iteration    1(   6)  ---------------------------------------


    POTLOK:  cpu time    0.00: real time    0.00
    SETDIJ:  cpu time    0.00: real time    0.00
     EDDAV:  cpu time    0.34: real time    0.35
 BZINTS: Fermi energy:  6.882189; 20.000000 electrons
         Band energy:-134.930156;  BLOECHL correction:  0.000000
       DOS:  cpu time    0.00: real time    0.00
    CHARGE:  cpu time    0.01: real time    0.01
    MIXING:  cpu time    0.00: real time    0.00
    --------------------------------------------
      LOOP:  cpu time    0.37: real time    0.37

 eigenvalue-minimisations  :  1240
 total energy-change (2. order) : 0.5385869E-01  (-0.1275536E-01)
 number of electron      19.9999914 magnetization 
 augmentation part        6.0982382 magnetization 

 Broyden mixing:
  rms(total) = 0.29220E+00    rms(broyden)= 0.29219E+00
  rms(prec ) = 0.32935E+00
  weight for this iteration     100.00

 eigenvalues of (default mixing * dielectric matrix)
  average eigenvalue GAMMA=   2.5737
  2.5737

 Free energy of the ion-electron system (eV)
  ---------------------------------------------------
  alpha Z        PSCENC =        26.74713621
  Ewald energy   TEWEN  =     -1420.79165657
  -1/2 Hartree   DENC   =      -625.26421813
  -exchange  EXHF       =         0.00000000
  -V(xc)+E(xc)   XCENC  =        28.78433886
  PAW double counting   =      1920.41902385    -1918.85600801
  entropy T*S    EENTRO =         0.00000000
  eigenvalues    EBANDS =      -134.93015568
  atomic energy  EATOM  =      2116.34525819
  ---------------------------------------------------
  free energy    TOTEN  =        -7.54628128 eV

  energy without entropy =       -7.54628128  energy(sigma->0) =       -7.54628128


--------------------------------------------------------------------------------------------------------




----------------------------------------- Iteration    1(   7)  ---------------------------------------


    POTLOK:  cpu time    0.00: real time    0.00
    SETDIJ:  cpu time    0.00: real time    0.00
     EDDAV:  cpu time    0.23: real time    0.24
 BZINTS: Fermi energy:  6.868571; 20.000000 electrons
         Band energy:-136.127999;  BLOECHL correction:  0.000000
       DOS:  cpu time    0.00: real time    0.00
    CHARGE:  cpu time    0.01: real time    0.01
    MIXING:  cpu time    0.00: real time    0.00
    --------------------------------------------
      LOOP:  cpu time    0.25: real time    0.26

 eigenvalue-minimisations  :  1112
 total energy-change (2. order) :-0.8382161E-03  (-0.5200583E-02)
 number of electron      19.9999914 magnetization 
 augmentation part        6.1044296 magnetization 

 Broyden mixing:
  rms(total) = 0.77541E-01    rms(broyden)= 0.77541E-01
  rms(prec ) = 0.93504E-01
  weight for this iteration     100.00

 eigenvalues of (default mixing * dielectric matrix)
  average eigenvalue GAMMA=   1.8225
  1.2385  2.4065

 Free energy of the ion-electron system (eV)
  ---------------------------------------------------
  alpha Z        PSCENC =        26.74713621
  Ewald energy   TEWEN  =     -1420.79165657
  -1/2 Hartree   DENC   =      -623.90621369
  -exchange  EXHF       =         0.00000000
  -V(xc)+E(xc)   XCENC  =        28.82517700
  PAW double counting   =      2125.53375786    -2124.17257917
  entropy T*S    EENTRO =         0.00000000
  eigenvalues    EBANDS =      -136.12799933
  atomic energy  EATOM  =      2116.34525819
  ---------------------------------------------------
  free energy    TOTEN  =        -7.54711950 eV

  energy without entropy =       -7.54711950  energy(sigma->0) =       -7.54711950


--------------------------------------------------------------------------------------------------------




----------------------------------------- Iteration    1(   8)  ---------------------------------------


    POTLOK:  cpu time    0.00: real time    0.00
    SETDIJ:  cpu time    0.00: real time    0.00
     EDDAV:  cpu time    0.23: real time    0.23
 BZINTS: Fermi energy:  6.903609; 20.000000 electrons
         Band energy:-135.564590;  BLOECHL correction:  0.000000
       DOS:  cpu time    0.00: real time    0.00
    CHARGE:  cpu time    0.01: real time    0.01
    MIXING:  cpu time    0.00: real time    0.00
    --------------------------------------------
      LOOP:  cpu time    0.25: real time    0.26

 eigenvalue-minimisations  :  1184
 total energy-change (2. order) :-0.2491736E-03  (-0.7250888E-03)
 number of electron      19.9999914 magnetization 
 augmentation part        6.0990035 magnetization 

 Broyden mixing:
  rms(total) = 0.17310E-01    rms(broyden)= 0.17310E-01
  rms(prec ) = 0.21971E-01
  weight for this iteration     100.00

 eigenvalues of (default mixing * dielectric matrix)
  average eigenvalue GAMMA=   1.9511
  2.4332  1.7100  1.7100

 Free energy of the ion-electron system (eV)
  ---------------------------------------------------
  alpha Z        PSCENC =        26.74713621
  Ewald energy   TEWEN  =     -1420.79165657
  -1/2 Hartree   DENC   =      -624.12143707
  -exchange  EXHF       =         0.00000000
  -V(xc)+E(xc)   XCENC  =        28.84730447
  PAW double counting   =      2200.55324666    -2199.56263080
  entropy T*S    EENTRO =         0.00000000
  eigenvalues    EBANDS =      -135.56458976
  atomic energy  EATOM  =      2116.34525819
  ---------------------------------------------------
  free energy    TOTEN  =        -7.54736867 eV

  energy without entropy =       -7.54736867  energy(sigma->0) =       -7.54736867


--------------------------------------------------------------------------------------------------------




----------------------------------------- Iteration    1(   9)  ---------------------------------------


    POTLOK:  cpu time    0.00: real time    0.00
    SETDIJ:  cpu time    0.00: real time    0.00
     EDDAV:  cpu time    0.23: real time    0.23
 BZINTS: Fermi energy:  6.897007; 20.000000 electrons
         Band energy:-135.776540;  BLOECHL correction:  0.000000
       DOS:  cpu time    0.00: real time    0.00
    CHARGE:  cpu time    0.01: real time    0.01
    MIXING:  cpu time    0.00: real time    0.00
    --------------------------------------------
      LOOP:  cpu time    0.25: real time    0.25

 eigenvalue-minimisations  :  1224
 total energy-change (2. order) :-0.1251023E-03  (-0.6176601E-04)
 number of electron      19.9999914 magnetization 
 augmentation part        6.1002145 magnetization 

 Broyden mixing:
  rms(total) = 0.31579E-02    rms(broyden)= 0.31578E-02
  rms(prec ) = 0.79674E-02
  weight for this iteration     100.00

 eigenvalues of (default mixing * dielectric matrix)
  average eigenvalue GAMMA=   1.6878
  2.5456  1.9211  1.4773  0.8071

 Free energy of the ion-electron system (eV)
  ---------------------------------------------------
  alpha Z        PSCENC =        26.74713621
  Ewald energy   TEWEN  =     -1420.79165657
  -1/2 Hartree   DENC   =      -623.94731461
  -exchange  EXHF       =         0.00000000
  -V(xc)+E(xc)   XCENC  =        28.85122840
  PAW double counting   =      2202.91029384    -2201.88589965
  entropy T*S    EENTRO =         0.00000000
  eigenvalues    EBANDS =      -135.77653958
  atomic energy  EATOM  =      2116.34525819
  ---------------------------------------------------
  free energy    TOTEN  =        -7.54749377 eV

  energy without entropy =       -7.54749377  energy(sigma->0) =       -7.54749377


--------------------------------------------------------------------------------------------------------




----------------------------------------- Iteration    1(  10)  ---------------------------------------


    POTLOK:  cpu time    0.00: real time    0.00
    SETDIJ:  cpu time    0.00: real time    0.00
     EDDAV:  cpu time    0.24: real time    0.24
 BZINTS: Fermi energy:  6.902037; 20.000000 electrons
         Band energy:-135.691972;  BLOECHL correction:  0.000000
       DOS:  cpu time    0.00: real time    0.00
    CHARGE:  cpu time    0.01: real time    0.01
    MIXING:  cpu time    0.00: real time    0.00
    --------------------------------------------
      LOOP:  cpu time    0.26: real time    0.26

 eigenvalue-minimisations  :  1248
 total energy-change (2. order) : 0.1244608E-04  (-0.1024011E-04)
 number of electron      19.9999914 magnetization 
 augmentation part        6.0995042 magnetization 

 Broyden mixing:
  rms(total) = 0.15443E-02    rms(broyden)= 0.15443E-02
  rms(prec ) = 0.27965E-02
  weight for this iteration     100.00

 eigenvalues of (default mixing * dielectric matrix)
  average eigenvalue GAMMA=   2.0164
  3.4028  2.7378  0.9804  1.4805  1.4805

 Free energy of the ion-electron system (eV)
  ---------------------------------------------------
  alpha Z        PSCENC =        26.74713621
  Ewald energy   TEWEN  =     -1420.79165657
  -1/2 Hartree   DENC   =      -624.00476342
  -exchange  EXHF       =         0.00000000
  -V(xc)+E(xc)   XCENC  =        28.85318083
  PAW double counting   =      2203.94826688    -2202.95293119
  entropy T*S    EENTRO =         0.00000000
  eigenvalues    EBANDS =      -135.69197226
  atomic energy  EATOM  =      2116.34525819
  ---------------------------------------------------
  free energy    TOTEN  =        -7.54748133 eV

  energy without entropy =       -7.54748133  energy(sigma->0) =       -7.54748133


--------------------------------------------------------------------------------------------------------




----------------------------------------- Iteration    1(  11)  ---------------------------------------


    POTLOK:  cpu time    0.00: real time    0.00
    SETDIJ:  cpu time    0.00: real time    0.00
     EDDAV:  cpu time    0.22: real time    0.22
 BZINTS: Fermi energy:  6.907012; 20.000000 electrons
         Band energy:-135.617541;  BLOECHL correction:  0.000000
       DOS:  cpu time    0.00: real time    0.00
    CHARGE:  cpu time    0.01: real time    0.01
    MIXING:  cpu time    0.00: real time    0.00
    --------------------------------------------
      LOOP:  cpu time    0.24: real time    0.24

 eigenvalue-minimisations  :  1120
 total energy-change (2. order) :-0.4343417E-05  (-0.4274504E-05)
 number of electron      19.9999914 magnetization 
 augmentation part        6.0991715 magnetization 

 Broyden mixing:
  rms(total) = 0.27495E-02    rms(broyden)= 0.27495E-02
  rms(prec ) = 0.30121E-02
  weight for this iteration     100.00

 eigenvalues of (default mixing * dielectric matrix)
  average eigenvalue GAMMA=   1.7672
  2.9000  2.6933  1.8915  1.3762  1.0028  0.7393

 Free energy of the ion-electron system (eV)
  ---------------------------------------------------
  alpha Z        PSCENC =        26.74713621
  Ewald energy   TEWEN  =     -1420.79165657
  -1/2 Hartree   DENC   =      -624.06853695
  -exchange  EXHF       =         0.00000000
  -V(xc)+E(xc)   XCENC  =        28.85551406
  PAW double counting   =      2200.63446362    -2199.65212351
  entropy T*S    EENTRO =         0.00000000
  eigenvalues    EBANDS =      -135.61754072
  atomic energy  EATOM  =      2116.34525819
  ---------------------------------------------------
  free energy    TOTEN  =        -7.54748567 eV

  energy without entropy =       -7.54748567  energy(sigma->0) =       -7.54748567


--------------------------------------------------------------------------------------------------------




----------------------------------------- Iteration    1(  12)  ---------------------------------------


    POTLOK:  cpu time    0.00: real time    0.00
    SETDIJ:  cpu time    0.00: real time    0.00
     EDDAV:  cpu time    0.22: real time    0.22
 BZINTS: Fermi energy:  6.906514; 20.000000 electrons
         Band energy:-135.625688;  BLOECHL correction:  0.000000
       DOS:  cpu time    0.00: real time    0.00
    --------------------------------------------
      LOOP:  cpu time    0.23: real time    0.23

 eigenvalue-minimisations  :  1136
 total energy-change (2. order) : 0.2012580E-06  (-0.2724312E-06)
 number of electron      19.9999914 magnetization 
 augmentation part        6.0991715 magnetization 

 Free energy of the ion-electron system (eV)
  ---------------------------------------------------
  alpha Z        PSCENC =        26.74713621
  Ewald energy   TEWEN  =     -1420.79165657
  -1/2 Hartree   DENC   =      -624.06161918
  -exchange  EXHF       =         0.00000000
  -V(xc)+E(xc)   XCENC  =        28.85527924
  PAW double counting   =      2201.53576905    -2200.55196432
  entropy T*S    EENTRO =         0.00000000
  eigenvalues    EBANDS =      -135.62568808
  atomic energy  EATOM  =      2116.34525819
  ---------------------------------------------------
  free energy    TOTEN  =        -7.54748547 eV

  energy without entropy =       -7.54748547  energy(sigma->0) =       -7.54748547


--------------------------------------------------------------------------------------------------------




 average (electrostatic) potential at core
  the test charge radii are     1.0894  1.1897
  (the norm of the test charge is              1.0000)
       1-100.6543       2 -87.8783
 
 
 
 E-fermi :   6.9065     XC(G=0):  -9.4610     alpha+bet :-11.4178


 k-point   1 :       0.0000    0.0000    0.0000
  band No.  band energies     occupation 
      1     -15.0154      2.00000
      2     -15.0154      2.00000
      3     -15.0113      2.00000
      4     -15.0113      2.00000
      5     -15.0113      2.00000
      6      -5.8873      2.00000
      7       2.1496      2.00000
      8       4.7365      2.00000
      9       4.7365      2.00000
     10       4.7365      2.00000
     11      10.1927      0.00000
     12      10.1927      0.00000
     13      10.1927      0.00000
     14      11.6254      0.00000
     15      11.6254      0.00000
     16      11.6254      0.00000

 k-point   2 :       0.1250    0.0000    0.0000
  band No.  band energies     occupation 
      1     -15.0162      2.00000
      2     -15.0162      2.00000
      3     -15.0114      2.00000
      4     -15.0106      2.00000
      5     -15.0105      2.00000
      6      -5.7572      2.00000
      7       1.4586      2.00000
      8       4.7596      2.00000
      9       4.7596      2.00000
     10       5.2195      2.00000
     11       9.5210      0.00000
     12       9.5210      0.00000
     13       9.5512      0.00000
     14      11.5695      0.00000
     15      11.9449      0.00000
     16      11.9449      0.00000

 k-point   3 :       0.2500    0.0000    0.0000
  band No.  band energies     occupation 
      1     -15.0184      2.00000
      2     -15.0184      2.00000
      3     -15.0106      2.00000
      4     -15.0082      2.00000
      5     -15.0082      2.00000
      6      -5.3915      2.00000
      7       0.2014      2.00000
      8       4.8427      2.00000
      9       4.8427      2.00000
     10       5.9032      2.00000
     11       8.4317      0.00000
     12       8.4317      0.00000
     13       8.4929      0.00000
     14      11.9959      0.00000
     15      12.8282      0.00000
     16      12.8282      0.00000

 k-point   4 :       0.3750    0.0000    0.0000
  band No.  band energies     occupation 
      1     -15.0204      2.00000
      2     -15.0204      2.00000
      3     -15.0102      2.00000
      4     -15.0057      2.00000
      5     -15.0057      2.00000
      6      -4.9013      2.00000
      7      -0.9325      2.00000
      8       4.9838      2.00000
      9       4.9838      2.00000
     10       6.4096      2.00000
     11       7.5768      0.00000
     12       7.5768      0.00000
     13       7.5867      0.00000
     14      13.2123      0.00000
     15      14.1986      0.00000
     16      14.1986      0.00000

 k-point   5 :       0.5000    0.0000    0.0000
  band No.  band energies     occupation 
      1     -15.0212      2.00000
      2     -15.0212      2.00000
      3     -15.0097      2.00000
      4     -15.0045      2.00000
      5     -15.0045      2.00000
      6      -4.6246      2.00000
      7      -1.4377      2.00000
      8       5.0717      2.00000
      9       5.0717      2.00000
     10       6.8762      2.00000
     11       6.9493      0.00000
     12       7.2375      0.00000
     13       7.2375      0.00000
     14      14.6254      0.00000
     15      15.5985      0.00000
     16      15.6943      0.00000

 k-point   6 :       0.1250    0.1250    0.0000
  band No.  band energies     occupation 
      1     -15.0179      2.00000
      2     -15.0149      2.00000
      3     -15.0119      2.00000
      4     -15.0101      2.00000
      5     -15.0101      2.00000
      6      -5.7143      2.00000
      7       1.4016      2.00000
      8       4.4375      2.00000
      9       4.4375      2.00000
     10       5.8369      2.00000
     11       8.2683      0.00000
     12      10.2660      0.00000
     13      10.2660      0.00000
     14      10.8455      0.00000
     15      12.4771      0.00000
     16      12.4771      0.00000

 k-point   7 :       0.2500    0.1250    0.0000
  band No.  band energies     occupation 
      1     -15.0204      2.00000
      2     -15.0155      2.00000
      3     -15.0120      2.00000
      4     -15.0084      2.00000
      5     -15.0079      2.00000
      6      -5.4280      2.00000
      7       0.5472      2.00000
      8       4.2584      2.00000
      9       4.3849      2.00000
     10       6.0295      2.00000
     11       7.7055      0.00000
     12       9.7723      0.00000
     13       9.7903      0.00000
     14      10.8330      0.00000
     15      13.2381      0.00000
     16      13.4106      0.00000

 k-point   8 :       0.3750    0.1250    0.0000
  band No.  band energies     occupation 
      1     -15.0221      2.00000
      2     -15.0175      2.00000
      3     -15.0108      2.00000
      4     -15.0064      2.00000
      5     -15.0050      2.00000
      6      -4.9737      2.00000
      7      -0.5290      2.00000
      8       4.2936      2.00000
      9       4.4085      2.00000
     10       5.5233      2.00000
     11       7.9891      0.00000
     12       8.8322      0.00000
     13       9.0950      0.00000
     14      11.5803      0.00000
     15      14.3831      0.00000
     16      14.7565      0.00000

 k-point   9 :       0.5000    0.1250    0.0000
  band No.  band energies     occupation 
      1     -15.0227      2.00000
      2     -15.0195      2.00000
      3     -15.0094      2.00000
      4     -15.0054      2.00000
      5     -15.0041      2.00000
      6      -4.5918      2.00000
      7      -1.2487      2.00000
      8       4.0912      2.00000
      9       4.5571      2.00000
     10       5.5761      2.00000
     11       7.9305      0.00000
     12       8.0143      0.00000
     13       8.9654      0.00000
     14      13.0258      0.00000
     15      15.1637      0.00000
     16      15.7310      0.00000

 k-point  10 :      -0.3750    0.1250    0.0000
  band No.  band energies     occupation 
      1     -15.0212      2.00000
      2     -15.0203      2.00000
      3     -15.0092      2.00000
      4     -15.0052      2.00000
      5     -15.0052      2.00000
      6      -4.6844      2.00000
      7      -1.1040      2.00000
      8       3.7740      2.00000
      9       4.9663      2.00000
     10       6.1001      2.00000
     11       7.5021      0.00000
     12       7.5071      0.00000
     13       9.4502      0.00000
     14      13.2311      0.00000
     15      14.0445      0.00000
     16      15.1229      0.00000

 k-point  11 :      -0.2500    0.1250    0.0000
  band No.  band energies     occupation 
      1     -15.0197      2.00000
      2     -15.0188      2.00000
      3     -15.0103      2.00000
      4     -15.0075      2.00000
      5     -15.0062      2.00000
      6      -5.1345      2.00000
      7      -0.2436      2.00000
      8       3.7502      2.00000
      9       5.2307      2.00000
     10       6.5469      2.00000
     11       7.3771      0.00000
     12       7.5686      0.00000
     13      10.0227      0.00000
     14      12.0529      0.00000
     15      12.7481      0.00000
     16      14.7748      0.00000

 k-point  12 :      -0.1250    0.1250    0.0000
  band No.  band energies     occupation 
      1     -15.0183      2.00000
      2     -15.0167      2.00000
      3     -15.0112      2.00000
      4     -15.0098      2.00000
      5     -15.0085      2.00000
      6      -5.5483      2.00000
      7       0.7691      2.00000
      8       4.1151      2.00000
      9       5.0962      2.00000
     10       5.9717      2.00000
     11       8.3325      0.00000
     12       8.3604      0.00000
     13      10.2388      0.00000
     14      11.5856      0.00000
[...]
     14      11.1105      0.00000
     15      15.3986      0.00000
     16      16.0118      0.00000

 k-point  16 :      -0.3750    0.2500    0.0000
  band No.  band energies     occupation 
      1     -15.0245      2.00000
      2     -15.0179      2.00000
      3     -15.0083      2.00000
      4     -15.0058      2.00000
      5     -15.0038      2.00000
      6      -4.4277      2.00000
      7      -0.9672      2.00000
      8       2.4826      2.00000
      9       4.2559      2.00000
     10       5.0262      2.00000
     11       8.5745      0.00000
     12       8.8512      0.00000
     13      11.2563      0.00000
     14      12.6976      0.00000
     15      13.8155      0.00000
     16      14.3727      0.00000

 k-point  17 :      -0.2500    0.2500    0.0000
  band No.  band energies     occupation 
      1     -15.0213      2.00000
      2     -15.0195      2.00000
      3     -15.0086      2.00000
      4     -15.0062      2.00000
      5     -15.0059      2.00000
      6      -4.7391      2.00000
      7      -0.6887      2.00000
      8       2.8043      2.00000
      9       4.8755      2.00000
     10       5.8591      2.00000
     11       7.7853      0.00000
     12       8.0196      0.00000
     13      10.9798      0.00000
     14      12.8088      0.00000
     15      13.2482      0.00000
     16      14.7586      0.00000

 k-point  18 :       0.3750    0.3750    0.0000
  band No.  band energies     occupation 
      1     -15.0299      2.00000
      2     -15.0150      2.00000
      3     -15.0117      2.00000
      4     -15.0025      2.00000
      5     -15.0025      2.00000
      6      -4.6343      2.00000
      7       0.1724      2.00000
      8       2.5634      2.00000
      9       3.3369      2.00000
     10       3.3369      2.00000
     11       9.2722      0.00000
     12      11.3834      0.00000
     13      11.3834      0.00000
     14      11.5571      0.00000
     15      15.2322      0.00000
     16      16.2192      0.00000

 k-point  19 :       0.5000    0.3750    0.0000
  band No.  band energies     occupation 
      1     -15.0307      2.00000
      2     -15.0142      2.00000
      3     -15.0124      2.00000
      4     -15.0018      2.00000
      5     -15.0015      2.00000
      6      -4.3849      2.00000
      7      -0.0427      2.00000
      8       1.7777      2.00000
      9       3.3244      2.00000
     10       3.5373      2.00000
     11       9.5024      0.00000
     12      10.9879      0.00000
     13      11.1917      0.00000
     14      12.5117      0.00000
     15      16.2366      0.00000
     16      16.3892      0.00000

 k-point  20 :      -0.3750    0.3750    0.0000
  band No.  band energies     occupation 
      1     -15.0283      2.00000
      2     -15.0147      2.00000
      3     -15.0115      2.00000
      4     -15.0034      2.00000
      5     -15.0021      2.00000
      6      -4.2922      2.00000
      7      -0.5395      2.00000
      8       1.7300      2.00000
      9       3.6438      2.00000
     10       4.1656      2.00000
     11       9.8663      0.00000
     12       9.9311      0.00000
     13      11.0561      0.00000
     14      12.3809      0.00000
     15      14.9253      0.00000
     16      15.2760      0.00000

 k-point  21 :       0.5000    0.5000    0.0000
  band No.  band energies     occupation 
      1     -15.0324      2.00000
      2     -15.0153      2.00000
      3     -15.0110      2.00000
      4     -15.0007      2.00000
      5     -15.0007      2.00000
      6      -4.3301      2.00000
      7       0.3930      2.00000
      8       1.3362      2.00000
      9       3.1529      2.00000
     10       3.1529      2.00000
     11       9.0655      0.00000
     12      11.7481      0.00000
     13      11.7481      0.00000
     14      13.1919      0.00000
     15      15.8401      0.00000
     16      17.4170      0.00000

 k-point  22 :       0.3750    0.2500    0.1250
  band No.  band energies     occupation 
      1     -15.0226      2.00000
      2     -15.0159      2.00000
      3     -15.0119      2.00000
      4     -15.0065      2.00000
      5     -15.0059      2.00000
      6      -5.0960      2.00000
      7      -0.0311      2.00000
      8       3.4798      2.00000
      9       4.5290      2.00000
     10       5.3687      2.00000
     11       8.3726      0.00000
     12       8.9097      0.00000
     13      10.3350      0.00000
     14      11.2241      0.00000
     15      13.8426      0.00000
     16      14.9317      0.00000

 k-point  23 :       0.5000    0.2500    0.1250
  band No.  band energies     occupation 
      1     -15.0238      2.00000
      2     -15.0174      2.00000
      3     -15.0101      2.00000
      4     -15.0056      2.00000
      5     -15.0042      2.00000
      6      -4.6705      2.00000
      7      -0.7247      2.00000
      8       3.1153      2.00000
      9       3.9139      2.00000
     10       5.6475      2.00000
     11       7.7906      0.00000
     12       9.3695      0.00000
     13      10.5613      0.00000
     14      11.7427      0.00000
     15      14.7284      0.00000
     16      15.1191      0.00000

 k-point  24 :      -0.3750    0.2500    0.1250
  band No.  band energies     occupation 
      1     -15.0241      2.00000
      2     -15.0184      2.00000
      3     -15.0084      2.00000
      4     -15.0065      2.00000
      5     -15.0033      2.00000
      6      -4.4455      2.00000
      7      -1.0677      2.00000
      8       3.1269      2.00000
      9       3.5077      2.00000
     10       5.9237      2.00000
     11       7.3720      0.00000
     12       9.7675      0.00000
     13      10.4140      0.00000
     14      12.8819      0.00000
     15      13.2826      0.00000
     16      16.2586      0.00000

 k-point  25 :       0.5000    0.3750    0.1250
  band No.  band energies     occupation 
      1     -15.0280      2.00000
      2     -15.0140      2.00000
      3     -15.0130      2.00000
      4     -15.0038      2.00000
      5     -15.0025      2.00000
      6      -4.5487      2.00000
      7      -0.3038      2.00000
      8       2.6499      2.00000
      9       2.9677      2.00000
     10       4.5115      2.00000
     11       9.4211      0.00000
     12       9.9890      0.00000
     13      11.2175      0.00000
     14      11.6671      0.00000
     15      15.4358      0.00000
     16      15.9845      0.00000

 k-point  26 :      -0.3750    0.3750    0.1250
  band No.  band energies     occupation 
      1     -15.0273      2.00000
      2     -15.0156      2.00000
      3     -15.0105      2.00000
      4     -15.0053      2.00000
      5     -15.0016      2.00000
      6      -4.3192      2.00000
      7      -0.6036      2.00000
      8       2.1201      2.00000
      9       2.7899      2.00000
     10       5.2820      2.00000
     11       8.4220      0.00000
     12      10.7028      0.00000
     13      11.7144      0.00000
     14      11.9212      0.00000
     15      13.7687      0.00000
     16      16.7865      0.00000

 k-point  27 :      -0.2500    0.3750    0.1250
  band No.  band energies     occupation 
      1     -15.0254      2.00000
      2     -15.0171      2.00000
      3     -15.0081      2.00000
      4     -15.0073      2.00000
      5     -15.0025      2.00000
      6      -4.3781      2.00000
      7      -0.7616      2.00000
      8       2.2722      2.00000
      9       3.1494      2.00000
     10       5.9140      2.00000
     11       7.5976      0.00000
     12      10.4680      0.00000
     13      11.4146      0.00000
     14      12.7598      0.00000
     15      12.9363      0.00000
     16      15.6124      0.00000

 k-point  28 :      -0.3750    0.5000    0.1250
  band No.  band energies     occupation 
      1     -15.0302      2.00000
      2     -15.0133      2.00000
      3     -15.0130      2.00000
      4     -15.0028      2.00000
      5     -15.0007      2.00000
      6      -4.2877      2.00000
      7      -0.1197      2.00000
      8       1.5335      2.00000
      9       2.7795      2.00000
     10       4.3055      2.00000
     11       9.8159      0.00000
     12       9.8694      0.00000
     13      12.0084      0.00000
     14      12.7462      0.00000
     15      14.9565      0.00000
     16      16.6830      0.00000

 k-point  29 :      -0.2500    0.5000    0.2500
  band No.  band energies     occupation 
      1     -15.0273      2.00000
      2     -15.0158      2.00000
      3     -15.0081      2.00000
      4     -15.0081      2.00000
      5     -15.0007      2.00000
      6      -4.2423      2.00000
      7      -0.4897      2.00000
      8       2.0786      2.00000
      9       2.0786      2.00000
     10       6.0379      2.00000
     11       7.7067      0.00000
     12      11.4748      0.00000
     13      11.4748      0.00000
     14      12.8951      0.00000
     15      12.8951      0.00000
     16      17.2011      0.00000


--------------------------------------------------------------------------------------------------------


 soft charge-density along one line, spin component           1
         0         1         2         3         4         5         6         7         8         9
 total charge-density along one line
 
 pseudopotential strength for first ion, spin component:           1
-16.732   0.000  -0.000   0.000   0.000   0.000  -0.000   0.000  -0.000   0.000   3.056   0.000   0.000   0.000  -0.000   0.000
 -0.000   0.000 -16.732   0.000  -0.000   0.000  -0.000   0.000   0.000   0.000   0.000   0.000   3.056   0.000   0.000   0.000
  0.000   0.000  -0.000   0.000 -16.724   0.000  -0.000   0.000  -0.000   0.000  -0.000   0.000   0.000   0.000   3.052   0.000
 -0.000   0.000  -0.000   0.000  -0.000   0.000 -16.732   0.000  -0.000   0.000   0.000   0.000   0.000   0.000   0.000   0.000
 -0.000   0.000   0.000   0.000  -0.000   0.000  -0.000   0.000 -16.724   0.000   0.000   0.000  -0.000   0.000   0.000   0.000
  3.056   0.000   0.000   0.000  -0.000   0.000   0.000   0.000   0.000   0.000   4.391   0.000  -0.000   0.000   0.000   0.000
  0.000   0.000   3.056   0.000   0.000   0.000   0.000   0.000  -0.000   0.000  -0.000   0.000   4.391   0.000  -0.000   0.000
 -0.000   0.000   0.000   0.000   3.052   0.000   0.000   0.000   0.000   0.000   0.000   0.000  -0.000   0.000   4.391   0.000
  0.000   0.000   0.000   0.000   0.000   0.000   3.056   0.000   0.000   0.000  -0.000   0.000  -0.000   0.000  -0.000   0.000
  0.000   0.000  -0.000   0.000   0.000   0.000   0.000   0.000   3.052   0.000   0.000   0.000   0.000   0.000  -0.000   0.000
 -0.000   0.000  -0.000   0.000   0.000   0.000  -0.000   0.000   0.000   0.000   0.000   0.000   0.000   0.000   0.000   0.000
  0.000   0.000   0.000   0.000   0.000   0.000   0.000   0.000  -0.000   0.000  -0.000   0.000  -0.000   0.000  -0.000   0.000
 -0.000   0.000   0.000   0.000  -0.000   0.000  -0.000   0.000  -0.000   0.000  -0.000   0.000  -0.000   0.000  -0.000   0.000
 -0.000   0.000  -0.000   0.000   0.000   0.000  -0.000   0.000   0.000   0.000   0.000   0.000  -0.000   0.000   0.000   0.000
 -0.000   0.000  -0.000   0.000   0.000   0.000  -0.000   0.000  -0.000   0.000   0.000   0.000  -0.000   0.000  -0.000   0.000
 -0.000   0.000   0.000   0.000   0.000   0.000  -0.000   0.000   0.000   0.000  -0.000   0.000  -0.000   0.000  -0.000   0.000
 -0.000   0.000  -0.000   0.000  -0.000   0.000   0.000   0.000   0.000   0.000   0.000   0.000  -0.000   0.000   0.000   0.000
 -0.000   0.000  -0.000   0.000  -0.000   0.000   0.000   0.000   0.000   0.000   0.000   0.000   0.000   0.000   0.000   0.000
 total augmentation occupancy for first ion, spin component:           1
  1.997  -0.000   0.000   0.000   0.000  -0.001   0.000   0.000   0.000   0.000   0.000  -0.000   0.000   0.000   0.000   0.000
 -0.000   1.997   0.000   0.000  -0.000   0.000  -0.001   0.000   0.000  -0.000  -0.000  -0.000   0.000   0.000   0.000   0.000
 -0.000   0.000   1.997   0.000   0.000  -0.000   0.000   0.002  -0.000   0.000   0.000   0.000   0.000   0.000   0.000   0.000
  0.000   0.000   0.000   1.997   0.000  -0.000   0.000  -0.000  -0.001   0.000  -0.000   0.000   0.000   0.000   0.000   0.000
  0.000   0.000   0.000  -0.000   1.997   0.000   0.000  -0.000   0.000   0.002  -0.000  -0.000   0.000   0.000   0.000   0.000
 -0.001   0.000  -0.000   0.000   0.000   0.008  -0.000   0.000   0.000  -0.000   0.000   0.000   0.000   0.000   0.000   0.000
  0.000  -0.001  -0.000   0.000  -0.000  -0.000   0.008  -0.000  -0.000   0.000   0.000   0.000   0.000   0.000   0.000   0.000
  0.000  -0.000   0.002  -0.000  -0.000  -0.000   0.000   0.041  -0.000   0.000   0.000   0.000   0.000   0.000   0.000   0.000
  0.000   0.000  -0.000  -0.001  -0.000   0.000  -0.000  -0.000   0.008  -0.000   0.000  -0.000   0.000   0.000   0.000   0.000
  0.000  -0.000   0.000   0.000   0.002  -0.000   0.000   0.000   0.000   0.041   0.000   0.000   0.000   0.000   0.000   0.000
 -0.000   0.000   0.000   0.000  -0.000   0.000   0.000  -0.000   0.000   0.000   2.016  -0.009   0.000   0.000   0.000   0.000
 -0.000  -0.000   0.000   0.000  -0.000   0.000  -0.000   0.000   0.000   0.000  -0.009   0.009   0.000   0.000   0.000   0.000
  0.000   0.000   0.000   0.000   0.000   0.000   0.000   0.000   0.000   0.000   0.000   0.000   1.515   0.000   0.000  -0.347
  0.000   0.000   0.000   0.000   0.000   0.000   0.000   0.000   0.000   0.000   0.000   0.000  -0.000   1.515  -0.000  -0.000
  0.000   0.000   0.000   0.000   0.000   0.000   0.000   0.000   0.000   0.000   0.000   0.000   0.000  -0.000   1.515  -0.000
  0.000   0.000   0.000   0.000   0.000   0.000   0.000   0.000   0.000   0.000   0.000   0.000  -0.347   0.000  -0.000   0.087
  0.000   0.000   0.000   0.000   0.000   0.000   0.000   0.000   0.000   0.000   0.000   0.000   0.000  -0.347  -0.000  -0.000
  0.000   0.000   0.000   0.000   0.000   0.000   0.000   0.000   0.000   0.000   0.000   0.000  -0.000  -0.000  -0.347  -0.000


------------------------ aborting loop because EDIFF is reached ----------------------------------------


 


 total charge     
 
# of ion     s       p       d       tot
----------------------------------------
  1        1.370   0.731   9.978  12.079
  2        1.385   1.966   0.029   3.380
------------------------------------------------
tot        2.754   2.698  10.007  15.459
 
    CHARGE:  cpu time    0.01: real time    0.01
    FORLOC:  cpu time    0.00: real time    0.00
    FORNL :  cpu time    0.05: real time    0.05
    STRESS:  cpu time    0.14: real time    0.15
    FORCOR:  cpu time    0.00: real time    0.00
    FORHAR:  cpu time    0.00: real time    0.00
    MIXING:  cpu time    0.00: real time    0.00

  FORCE on cell =-STRESS in cart. coord.  units (eV):
  Direction    XX          YY          ZZ          XY          YZ          ZX
  --------------------------------------------------------------------------------------
  Alpha Z    26.74714    26.74714    26.74714
  Ewald    -473.59734  -473.59734  -473.59734     0.00000    -0.00000    -0.00000
  Hartree   208.01195   208.01195   208.01195     0.00000     0.00000     0.00000
  E(xc)     -94.20646   -94.20646   -94.20646     0.00002     0.00002     0.00002
  Local    -144.08712  -144.08712  -144.08712     0.00007     0.00007     0.00007
  n-local   181.75795   183.46896   181.40306     0.00660    -0.99013     0.61572
  augment   151.49659   151.49659   151.49659    -0.00002    -0.00002    -0.00002
  Kinetic   144.45944   147.76957   139.86882     4.36917    -2.98217     1.92710
  Fock        0.00000     0.00000     0.00000     0.00000     0.00000     0.00000
  -------------------------------------------------------------------------------------
  Total       0.60735     0.60735     0.60735     0.00000     0.00000     0.00000
  in kB      15.43373    15.43373    15.43373     0.00000     0.00000     0.00000
  external pressure =       15.43 kB  Pullay stress =        0.00 kB


 VOLUME and BASIS-vectors are now :
 -----------------------------------------------------------------------------
  energy-cutoff  :      301.35
  volume of cell :       63.05
      direct lattice vectors                 reciprocal lattice vectors
     0.000000000  3.159000071  3.159000071    -0.158277933  0.158277933  0.158277933
     3.159000071  0.000000000  3.159000071     0.158277933 -0.158277933  0.158277933
     3.159000071  3.159000071  0.000000000     0.158277933  0.158277933 -0.158277933

  length of vectors
     4.467500743  4.467500743  4.467500743     0.274145421  0.274145421  0.274145421


 FORCES acting on ions
    electron-ion (+dipol)            ewald-force                    non-local-force                 convergence-correction
 -----------------------------------------------------------------------------------------------
   -.829E-14 -.603E-14 -.742E-14   -.503E-14 0.219E-14 -.637E-15   -.331E-23 0.000E+00 0.000E+00   0.929E-14 -.127E-13 0.226E-13
   0.788E-13 0.589E-13 0.588E-13   0.432E-14 -.197E-14 0.273E-14   0.000E+00 0.000E+00 0.000E+00   -.164E-14 0.315E-15 -.475E-15
 -----------------------------------------------------------------------------------------------
   0.705E-13 0.529E-13 0.514E-13   -.713E-15 0.223E-15 0.209E-14   -.331E-23 0.000E+00 0.000E+00   0.765E-14 -.124E-13 0.221E-13
 
 
 POSITION                                       TOTAL-FORCE (eV/Angst)
 -----------------------------------------------------------------------------------
      0.00000      0.00000      0.00000        -0.000000     -0.000000      0.000000
      3.15900      3.15900      3.15900         0.000000      0.000000     -0.000000
 -----------------------------------------------------------------------------------
    total drift:                                0.000000      0.000000      0.000000


--------------------------------------------------------------------------------------------------------



  FREE ENERGIE OF THE ION-ELECTRON SYSTEM (eV)
  ---------------------------------------------------
  free  energy   TOTEN  =        -7.54748547 eV

  energy  without entropy=       -7.54748547  energy(sigma->0) =       -7.54748547
 


--------------------------------------------------------------------------------------------------------


    POTLOK:  cpu time    0.01: real time    0.01


--------------------------------------------------------------------------------------------------------


     LOOP+:  cpu time    3.72: real time    4.15
    4ORBIT:  cpu time    0.00: real time    0.00
 


 total charge     
 
# of ion     s       p       d       tot
----------------------------------------
  1        1.370   0.731   9.978  12.079
  2        1.385   1.966   0.029   3.380
------------------------------------------------
tot        2.754   2.698  10.007  15.459
 
 BZINTS: Fermi energy:  6.906514; 20.000000 electrons
         Band energy:-135.625688;  BLOECHL correction:  0.000000

 total amount of memory used by VASP on root node    31394. kBytes
========================================================================

   base      :      30000. kBytes
   nonlr-proj:        313. kBytes
   fftplans  :        360. kBytes
   grid      :        432. kBytes
   one-center:         15. kBytes
   wavefun   :        274. kBytes
 
  
  
 General timing and accounting informations for this job:
 ========================================================
  
                  Total CPU time used (sec):        4.581
                            User time (sec):        3.861
                          System time (sec):        0.720
                         Elapsed time (sec):        8.200
  
                   Maximum memory used (kb):       38536.
                   Average memory used (kb):           0.
  
                          Minor page faults:       133297
                          Major page faults:            9
                 Voluntary context switches:         4394
