 vasp.5.3.3 18Dez12 (build Jan 07 2018 16:34:56) complex                        
  
 executed on             LinuxIFC date 2018.09.18  20:54:13
 running on   24 total cores
 distrk:  each k-point on   24 cores,    1 groups
 distr:  one band on NCORES_PER_BAND=   6 cores,    4 groups


--------------------------------------------------------------------------------------------------------


 INCAR:
 POTCAR:    PAW_PBE Sn_d 06Sep2000                
 POTCAR:    PAW_PBE Te 08Apr2002                  
 POTCAR:    PAW_PBE Sn_d 06Sep2000                
   VRHFIN =Sn: s2p2                                                             
   LEXCH  = PE                                                                  
   EATOM  =  1893.1092 eV,  139.1396 Ry                                         
                                                                                
   TITEL  = PAW_PBE Sn_d 06Sep2000                                              
   LULTRA =        F    use ultrasoft PP ?                                      
   IUNSCR =        1    unscreen: 0-lin 1-nonlin 2-no                           
   RPACOR =    2.300    partial core radius                                     
   POMASS =  118.710; ZVAL   =   14.000    mass and valenz                      
   RCORE  =    2.500    outmost cutoff radius                                   
   RWIGS  =    2.960; RWIGS  =    1.566    wigner-seitz radius (au A)           
   ENMAX  =  241.083; ENMIN  =  180.812 eV                                      
   ICORE  =        3    local potential                                         
   LCOR   =        T    correct aug charges                                     
   LPAW   =        T    paw PP                                                  
   EAUG   =  439.825                                                            
   DEXC   =    0.000                                                            
   RMAX   =    2.560    core radius for proj-oper                               
   RAUG   =    1.300    factor for augmentation sphere                          
   RDEP   =    2.659    radius for radial grids                                 
   RDEPT  =    2.046    core radius for aug-charge                              
                                                                                
   Atomic configuration                                                         
   12 entries                                                                   
     n  l   j            E        occ.                                          
     1  0  0.50    -29007.2859   2.0000                                         
     2  0  0.50     -4378.8056   2.0000                                         
     2  1  1.50     -3930.4293   6.0000                                         
     3  0  0.50      -845.0264   2.0000                                         
     3  1  1.50      -698.5725   6.0000                                         
     3  2  2.50      -473.2839  10.0000                                         
     4  0  0.50      -133.9036   2.0000                                         
     4  1  1.50       -89.6752   6.0000                                         
     4  2  2.50       -25.8375  10.0000                                         
     5  0  0.50       -10.5484   2.0000                                         
     5  1  0.50        -3.6940   2.0000                                         
     4  3  2.50        -2.7416   0.0000                                         
   Description                                                                  
     l       E           TYP  RCUT    TYP  RCUT                                 
     2    -25.8374624     23  2.500                                             
     2     -5.4423304     23  2.500                                             
     0    -10.5483727     23  2.500                                             
     0     13.6058260     23  2.500                                             
     1     -3.6939829     23  2.500                                             
     1      1.9821976     23  2.500                                             
     3     -1.3605826      7  2.500                                             
  local pseudopotential read in
  partial core-charges read in
  partial kinetic energy density read in
  atomic valenz-charges read in
  non local Contribution for L=           2  read in
    real space projection operators read in
  non local Contribution for L=           2  read in
    real space projection operators read in
  non local Contribution for L=           0  read in
    real space projection operators read in
  non local Contribution for L=           0  read in
    real space projection operators read in
  non local Contribution for L=           1  read in
    real space projection operators read in
  non local Contribution for L=           1  read in
    real space projection operators read in
    PAW grid and wavefunctions read in
 
   number of l-projection  operators is LMAX  =           6
   number of lm-projection operators is LMMAX =          18
 
 POTCAR:    PAW_PBE Te 08Apr2002                  
   VRHFIN =Te: s2p4                                                             
   LEXCH  = PE                                                                  
   EATOM  =   223.2721 eV,   16.4100 Ry                                         
                                                                                
   TITEL  = PAW_PBE Te 08Apr2002                                                
   LULTRA =        F    use ultrasoft PP ?                                      
   IUNSCR =        1    unscreen: 0-lin 1-nonlin 2-no                           
   RPACOR =    2.200    partial core radius                                     
   POMASS =  127.600; ZVAL   =    6.000    mass and valenz                      
   RCORE  =    2.300    outmost cutoff radius                                   
   RWIGS  =    2.900; RWIGS  =    1.535    wigner-seitz radius (au A)           
   ENMAX  =  174.982; ENMIN  =  131.236 eV                                      
   ICORE  =        3    local potential                                         
   LCOR   =        T    correct aug charges                                     
   LPAW   =        T    paw PP                                                  
   EAUG   =  368.792                                                            
   DEXC   =    0.000                                                            
   RMAX   =    2.345    core radius for proj-oper                               
   RAUG   =    1.300    factor for augmentation sphere                          
   RDEP   =    2.397    radius for radial grids                                 
   RDEPT  =    2.174    core radius for aug-charge                              
                                                                                
   Atomic configuration                                                         
   13 entries                                                                   
     n  l   j            E        occ.                                          
     1  0  0.50    -31621.2075   2.0000                                         
     2  0  0.50     -4848.7941   2.0000                                         
     2  1  1.50     -4352.1960   6.0000                                         
     3  0  0.50      -964.9612   2.0000                                         
     3  1  1.50      -803.6179   6.0000                                         
     3  2  2.50      -559.8710  10.0000                                         
     4  0  0.50      -164.3522   2.0000                                         
     4  1  1.50      -114.3756   6.0000                                         
     4  2  2.50       -41.6483  10.0000                                         
     5  0  0.50       -15.1072   2.0000                                         
     5  1  0.50        -5.9526   4.0000                                         
     5  2  1.50        -5.4423   0.0000                                         
     4  3  2.50        -5.4423   0.0000                                         
   Description                                                                  
     l       E           TYP  RCUT    TYP  RCUT                                 
     0    -15.1072389     23  2.300                                             
     0    -16.4678215     23  2.300                                             
     1     -5.9526306     23  2.300                                             
     1     -2.4873968     23  2.300                                             
     2     -5.4423304     23  2.300                                             
     3     -1.3605826     23  2.300                                             
  local pseudopotential read in
  partial core-charges read in
  partial kinetic energy density read in
  atomic valenz-charges read in
  non local Contribution for L=           0  read in
    real space projection operators read in
  non local Contribution for L=           0  read in
    real space projection operators read in
  non local Contribution for L=           1  read in
    real space projection operators read in
  non local Contribution for L=           1  read in
    real space projection operators read in
  non local Contribution for L=           2  read in
    real space projection operators read in
    PAW grid and wavefunctions read in
 
   number of l-projection  operators is LMAX  =           5
   number of lm-projection operators is LMMAX =          13
 
  PAW_PBE Sn_d 06Sep2000                :
 energy of atom  1       EATOM=-1893.1092
 kinetic energy error for atom=    0.0334 (will be added to EATOM!!)
  PAW_PBE Te 08Apr2002                  :
 energy of atom  2       EATOM= -223.2721
 kinetic energy error for atom=    0.0026 (will be added to EATOM!!)
 
 
 POSCAR: Sn Te                                   
  positions in direct lattice
  No initial velocities read in
 exchange correlation table for  LEXCH =        8
   RHO(1)=    0.500       N(1)  =     2000
   RHO(2)=  100.500       N(2)  =     4000
 


--------------------------------------------------------------------------------------------------------


 ion  position               nearest neighbor table
   1  0.000  0.000  0.000-   2 3.16   2 3.16   2 3.16   2 3.16   2 3.16   2 3.16
   2  0.500  0.500  0.500-   1 3.16   1 3.16   1 3.16   1 3.16   1 3.16   1 3.16
 
  LATTYP: Found a face centered cubic cell.
 ALAT       =     6.3180001411
  
  Lattice vectors:
  
 A1 = (   0.0000000000,   3.1590000705,   3.1590000705)
 A2 = (   3.1590000705,   0.0000000000,   3.1590000705)
 A3 = (   3.1590000705,   3.1590000705,   0.0000000000)


Analysis of symmetry for initial positions (statically):
=====================================================================
 Subroutine PRICEL returns:
 Original cell was already a primitive cell.
 

 Routine SETGRP: Setting up the symmetry group for a 
 face centered cubic supercell.


 Subroutine GETGRP returns: Found 48 space group operations
 (whereof 48 operations were pure point group operations)
 out of a pool of 48 trial point group operations.


The static configuration has the point symmetry O_h .


Analysis of symmetry for dynamics (positions and initial velocities):
=====================================================================
 Subroutine PRICEL returns:
 Original cell was already a primitive cell.
 

 Routine SETGRP: Setting up the symmetry group for a 
 face centered cubic supercell.


 Subroutine GETGRP returns: Found 48 space group operations
 (whereof 48 operations were pure point group operations)
 out of a pool of 48 trial point group operations.


The dynamic configuration has the point symmetry O_h .


Analysis of structural, dynamic, and magnetic symmetry:
=====================================================================
 Subroutine PRICEL returns:
 Original cell was already a primitive cell.
 

 Routine SETGRP: Setting up the symmetry group for a 
 face centered cubic supercell.


 Subroutine GETGRP returns: Found 48 space group operations
 (whereof 48 operations were pure point group operations)
 out of a pool of 48 trial point group operations.


The (compounded) configuration has the point symmetry O_h .


 irot  :   1
 --------------------------------------------------------------------
 isymop:   1   0   0
           0   1   0
           0   0   1

 gtrans:     0.0000000     0.0000000     0.0000000

 ptrans:     0.0000000     0.0000000     0.0000000
 rotmap:
 (   1->   1)  (   2->   2) 


 irot  :   2
 --------------------------------------------------------------------
 isymop:  -1   0   0
           0  -1   0
           0   0  -1

 gtrans:     0.0000000     0.0000000     0.0000000

 ptrans:     0.0000000     0.0000000     0.0000000
 rotmap:
 (   1->   1)  (   2->   2) 


 irot  :   3
 --------------------------------------------------------------------
 isymop:   0   0   1
           1   0   0
           0   1   0

 gtrans:     0.0000000     0.0000000     0.0000000

 ptrans:     0.0000000     0.0000000     0.0000000
 rotmap:
 (   1->   1)  (   2->   2) 


 irot  :   4
 --------------------------------------------------------------------
 isymop:   0   0  -1
          -1   0   0
           0  -1   0

 gtrans:     0.0000000     0.0000000     0.0000000

 ptrans:     0.0000000     0.0000000     0.0000000
 rotmap:
 (   1->   1)  (   2->   2) 


 irot  :   5
 --------------------------------------------------------------------
 isymop:   0   1   0
           0   0   1
           1   0   0

 gtrans:     0.0000000     0.0000000     0.0000000

 ptrans:     0.0000000     0.0000000     0.0000000
 rotmap:
 (   1->   1)  (   2->   2) 


 irot  :   6
 --------------------------------------------------------------------
 isymop:   0  -1   0
           0   0  -1
          -1   0   0

 gtrans:     0.0000000     0.0000000     0.0000000

 ptrans:     0.0000000     0.0000000     0.0000000
 rotmap:
 (   1->   1)  (   2->   2) 


 irot  :   7
 --------------------------------------------------------------------
 isymop:   1   1   1
           0   0  -1
          -1   0   0

 gtrans:     0.0000000     0.0000000     0.0000000

 ptrans:     0.0000000     0.0000000     0.0000000
 rotmap:
 (   1->   1)  (   2->   2) 


 irot  :   8
 --------------------------------------------------------------------
 isymop:  -1  -1  -1
           0   0   1
           1   0   0

 gtrans:     0.0000000     0.0000000     0.0000000

 ptrans:     0.0000000     0.0000000     0.0000000
 rotmap:
 (   1->   1)  (   2->   2) 


 irot  :   9
 --------------------------------------------------------------------
 isymop:   1   1   1
           0  -1   0
           0   0  -1

 gtrans:     0.0000000     0.0000000     0.0000000

 ptrans:     0.0000000     0.0000000     0.0000000
 rotmap:
 (   1->   1)  (   2->   2) 


 irot  :  10
 --------------------------------------------------------------------
 isymop:  -1  -1  -1
           0   1   0
           0   0   1

 gtrans:     0.0000000     0.0000000     0.0000000

 ptrans:     0.0000000     0.0000000     0.0000000
 rotmap:
 (   1->   1)  (   2->   2) 


 irot  :  11
 --------------------------------------------------------------------
 isymop:   1   1   1
          -1   0   0
           0  -1   0

 gtrans:     0.0000000     0.0000000     0.0000000

 ptrans:     0.0000000     0.0000000     0.0000000
 rotmap:
 (   1->   1)  (   2->   2) 


 irot  :  12
 --------------------------------------------------------------------
 isymop:  -1  -1  -1
           1   0   0
           0   1   0

 gtrans:     0.0000000     0.0000000     0.0000000

 ptrans:     0.0000000     0.0000000     0.0000000
 rotmap:
 (   1->   1)  (   2->   2) 


 irot  :  13
 --------------------------------------------------------------------
 isymop:   0   1   0
           1   0   0
          -1  -1  -1

 gtrans:     0.0000000     0.0000000     0.0000000

 ptrans:     0.0000000     0.0000000     0.0000000
 rotmap:
 (   1->   1)  (   2->   2) 


 irot  :  14
 --------------------------------------------------------------------
 isymop:   0  -1   0
          -1   0   0
           1   1   1

 gtrans:     0.0000000     0.0000000     0.0000000

 ptrans:     0.0000000     0.0000000     0.0000000
 rotmap:
 (   1->   1)  (   2->   2) 


 irot  :  15
 --------------------------------------------------------------------
 isymop:   1   0   0
           0   0   1
          -1  -1  -1

 gtrans:     0.0000000     0.0000000     0.0000000

 ptrans:     0.0000000     0.0000000     0.0000000
 rotmap:
 (   1->   1)  (   2->   2) 


 irot  :  16
 --------------------------------------------------------------------
 isymop:  -1   0   0
           0   0  -1
           1   1   1

 gtrans:     0.0000000     0.0000000     0.0000000

 ptrans:     0.0000000     0.0000000     0.0000000
 rotmap:
 (   1->   1)  (   2->   2) 


 irot  :  17
 --------------------------------------------------------------------
 isymop:   0   0   1
           0   1   0
          -1  -1  -1

 gtrans:     0.0000000     0.0000000     0.0000000

 ptrans:     0.0000000     0.0000000     0.0000000
 rotmap:
 (   1->   1)  (   2->   2) 


 irot  :  18
 --------------------------------------------------------------------
 isymop:   0   0  -1
           0  -1   0
           1   1   1

 gtrans:     0.0000000     0.0000000     0.0000000

 ptrans:     0.0000000     0.0000000     0.0000000
 rotmap:
 (   1->   1)  (   2->   2) 


 irot  :  19
 --------------------------------------------------------------------
 isymop:   0   0  -1
           1   1   1
           0  -1   0

 gtrans:     0.0000000     0.0000000     0.0000000

 ptrans:     0.0000000     0.0000000     0.0000000
 rotmap:
 (   1->   1)  (   2->   2) 


 irot  :  20
 --------------------------------------------------------------------
 isymop:   0   0   1
          -1  -1  -1
           0   1   0

 gtrans:     0.0000000     0.0000000     0.0000000

 ptrans:     0.0000000     0.0000000     0.0000000
 rotmap:
 (   1->   1)  (   2->   2) 


 irot  :  21
 --------------------------------------------------------------------
 isymop:   0  -1   0
           1   1   1
          -1   0   0

 gtrans:     0.0000000     0.0000000     0.0000000

 ptrans:     0.0000000     0.0000000     0.0000000
 rotmap:
 (   1->   1)  (   2->   2) 


 irot  :  22
 --------------------------------------------------------------------
 isymop:   0   1   0
          -1  -1  -1
           1   0   0

 gtrans:     0.0000000     0.0000000     0.0000000

 ptrans:     0.0000000     0.0000000     0.0000000
 rotmap:
 (   1->   1)  (   2->   2) 


 irot  :  23
 --------------------------------------------------------------------
 isymop:  -1   0   0
           1   1   1
           0   0  -1

 gtrans:     0.0000000     0.0000000     0.0000000

 ptrans:     0.0000000     0.0000000     0.0000000
 rotmap:
 (   1->   1)  (   2->   2) 


 irot  :  24
 --------------------------------------------------------------------
 isymop:   1   0   0
          -1  -1  -1
           0   0   1

 gtrans:     0.0000000     0.0000000     0.0000000

 ptrans:     0.0000000     0.0000000     0.0000000
 rotmap:
 (   1->   1)  (   2->   2) 


 irot  :  25
 --------------------------------------------------------------------
 isymop:  -1  -1  -1
           0   1   0
           1   0   0

 gtrans:     0.0000000     0.0000000     0.0000000

 ptrans:     0.0000000     0.0000000     0.0000000
 rotmap:
 (   1->   1)  (   2->   2) 


 irot  :  26
 --------------------------------------------------------------------
 isymop:   1   1   1
           0  -1   0
          -1   0   0

 gtrans:     0.0000000     0.0000000     0.0000000

 ptrans:     0.0000000     0.0000000     0.0000000
 rotmap:
 (   1->   1)  (   2->   2) 


 irot  :  27
 --------------------------------------------------------------------
 isymop:  -1  -1  -1
           1   0   0
           0   0   1

 gtrans:     0.0000000     0.0000000     0.0000000

 ptrans:     0.0000000     0.0000000     0.0000000
 rotmap:
 (   1->   1)  (   2->   2) 


 irot  :  28
 --------------------------------------------------------------------
 isymop:   1   1   1
          -1   0   0
           0   0  -1

 gtrans:     0.0000000     0.0000000     0.0000000

 ptrans:     0.0000000     0.0000000     0.0000000
 rotmap:
 (   1->   1)  (   2->   2) 


 irot  :  29
 --------------------------------------------------------------------
 isymop:  -1  -1  -1
           0   0   1
           0   1   0

 gtrans:     0.0000000     0.0000000     0.0000000

 ptrans:     0.0000000     0.0000000     0.0000000
 rotmap:
 (   1->   1)  (   2->   2) 


 irot  :  30
 --------------------------------------------------------------------
 isymop:   1   1   1
           0   0  -1
           0  -1   0

 gtrans:     0.0000000     0.0000000     0.0000000

 ptrans:     0.0000000     0.0000000     0.0000000
 rotmap:
 (   1->   1)  (   2->   2) 


 irot  :  31
 --------------------------------------------------------------------
 isymop:   0  -1   0
           0   0  -1
           1   1   1

 gtrans:     0.0000000     0.0000000     0.0000000

 ptrans:     0.0000000     0.0000000     0.0000000
 rotmap:
 (   1->   1)  (   2->   2) 


 irot  :  32
 --------------------------------------------------------------------
 isymop:   0   1   0
           0   0   1
          -1  -1  -1

 gtrans:     0.0000000     0.0000000     0.0000000

 ptrans:     0.0000000     0.0000000     0.0000000
 rotmap:
 (   1->   1)  (   2->   2) 


 irot  :  33
 --------------------------------------------------------------------
 isymop:  -1   0   0
           0  -1   0
           1   1   1

 gtrans:     0.0000000     0.0000000     0.0000000

 ptrans:     0.0000000     0.0000000     0.0000000
 rotmap:
 (   1->   1)  (   2->   2) 


 irot  :  34
 --------------------------------------------------------------------
 isymop:   1   0   0
           0   1   0
          -1  -1  -1

 gtrans:     0.0000000     0.0000000     0.0000000

 ptrans:     0.0000000     0.0000000     0.0000000
 rotmap:
 (   1->   1)  (   2->   2) 


 irot  :  35
 --------------------------------------------------------------------
 isymop:   0   0  -1
          -1   0   0
           1   1   1

 gtrans:     0.0000000     0.0000000     0.0000000

 ptrans:     0.0000000     0.0000000     0.0000000
 rotmap:
 (   1->   1)  (   2->   2) 


 irot  :  36
 --------------------------------------------------------------------
 isymop:   0   0   1
           1   0   0
          -1  -1  -1

 gtrans:     0.0000000     0.0000000     0.0000000

 ptrans:     0.0000000     0.0000000     0.0000000
 rotmap:
 (   1->   1)  (   2->   2) 


 irot  :  37
 --------------------------------------------------------------------
 isymop:   1   0   0
          -1  -1  -1
           0   1   0

 gtrans:     0.0000000     0.0000000     0.0000000

 ptrans:     0.0000000     0.0000000     0.0000000
 rotmap:
 (   1->   1)  (   2->   2) 


 irot  :  38
 --------------------------------------------------------------------
 isymop:  -1   0   0
           1   1   1
           0  -1   0

 gtrans:     0.0000000     0.0000000     0.0000000

 ptrans:     0.0000000     0.0000000     0.0000000
 rotmap:
 (   1->   1)  (   2->   2) 


 irot  :  39
 --------------------------------------------------------------------
 isymop:   0   0   1
          -1  -1  -1
           1   0   0

 gtrans:     0.0000000     0.0000000     0.0000000

 ptrans:     0.0000000     0.0000000     0.0000000
 rotmap:
 (   1->   1)  (   2->   2) 


 irot  :  40
 --------------------------------------------------------------------
 isymop:   0   0  -1
           1   1   1
          -1   0   0

 gtrans:     0.0000000     0.0000000     0.0000000

 ptrans:     0.0000000     0.0000000     0.0000000
 rotmap:
 (   1->   1)  (   2->   2) 


 irot  :  41
 --------------------------------------------------------------------
 isymop:   0   1   0
          -1  -1  -1
           0   0   1

 gtrans:     0.0000000     0.0000000     0.0000000

 ptrans:     0.0000000     0.0000000     0.0000000
 rotmap:
 (   1->   1)  (   2->   2) 


 irot  :  42
 --------------------------------------------------------------------
 isymop:   0  -1   0
           1   1   1
           0   0  -1

 gtrans:     0.0000000     0.0000000     0.0000000

 ptrans:     0.0000000     0.0000000     0.0000000
 rotmap:
 (   1->   1)  (   2->   2) 


 irot  :  43
 --------------------------------------------------------------------
 isymop:  -1   0   0
           0   0  -1
           0  -1   0

 gtrans:     0.0000000     0.0000000     0.0000000

 ptrans:     0.0000000     0.0000000     0.0000000
 rotmap:
 (   1->   1)  (   2->   2) 


 irot  :  44
 --------------------------------------------------------------------
 isymop:   1   0   0
           0   0   1
           0   1   0

 gtrans:     0.0000000     0.0000000     0.0000000

 ptrans:     0.0000000     0.0000000     0.0000000
 rotmap:
 (   1->   1)  (   2->   2) 


 irot  :  45
 --------------------------------------------------------------------
 isymop:   0  -1   0
          -1   0   0
           0   0  -1

 gtrans:     0.0000000     0.0000000     0.0000000

 ptrans:     0.0000000     0.0000000     0.0000000
 rotmap:
 (   1->   1)  (   2->   2) 


 irot  :  46
 --------------------------------------------------------------------
 isymop:   0   1   0
           1   0   0
           0   0   1

 gtrans:     0.0000000     0.0000000     0.0000000

 ptrans:     0.0000000     0.0000000     0.0000000
 rotmap:
 (   1->   1)  (   2->   2) 


 irot  :  47
 --------------------------------------------------------------------
 isymop:   0   0  -1
           0  -1   0
          -1   0   0

 gtrans:     0.0000000     0.0000000     0.0000000

 ptrans:     0.0000000     0.0000000     0.0000000
 rotmap:
 (   1->   1)  (   2->   2) 


 irot  :  48
 --------------------------------------------------------------------
 isymop:   0   0   1
           0   1   0
           1   0   0

 gtrans:     0.0000000     0.0000000     0.0000000

 ptrans:     0.0000000     0.0000000     0.0000000
 rotmap:
 (   1->   1)  (   2->   2) 
 
 
 KPOINTS: Automatic kpoint scheme                 

Automatic generation of k-mesh.
Space group operators:
 irot       det(A)        alpha          n_x          n_y          n_z        tau_x        tau_y        tau_z
    1     1.000000     0.000001     1.000000     0.000000     0.000000     0.000000     0.000000     0.000000
    2    -1.000000     0.000001     1.000000     0.000000     0.000000     0.000000     0.000000     0.000000
    3     1.000000   120.000000    -0.577350    -0.577350    -0.577350     0.000000     0.000000     0.000000
    4    -1.000000   120.000000    -0.577350    -0.577350    -0.577350     0.000000     0.000000     0.000000
    5     1.000000   120.000000     0.577350     0.577350     0.577350     0.000000     0.000000     0.000000
    6    -1.000000   120.000000     0.577350     0.577350     0.577350     0.000000     0.000000     0.000000
    7     1.000000    90.000000     0.000000     0.000000    -1.000000     0.000000     0.000000     0.000000
    8    -1.000000    90.000000     0.000000     0.000000    -1.000000     0.000000     0.000000     0.000000
    9     1.000000   180.000000     0.000000     0.707107     0.707107     0.000000     0.000000     0.000000
   10    -1.000000   180.000000     0.000000     0.707107     0.707107     0.000000     0.000000     0.000000
   11     1.000000    90.000000     0.000000     1.000000     0.000000     0.000000     0.000000     0.000000
   12    -1.000000    90.000000     0.000000     1.000000     0.000000     0.000000     0.000000     0.000000
   13     1.000000   180.000000     0.000000     0.000000     1.000000     0.000000     0.000000     0.000000
   14    -1.000000   180.000000     0.000000     0.000000     1.000000     0.000000     0.000000     0.000000
   15     1.000000   120.000000    -0.577350     0.577350     0.577350     0.000000     0.000000     0.000000
   16    -1.000000   120.000000    -0.577350     0.577350     0.577350     0.000000     0.000000     0.000000
   17     1.000000   120.000000    -0.577350     0.577350    -0.577350     0.000000     0.000000     0.000000
   18    -1.000000   120.000000    -0.577350     0.577350    -0.577350     0.000000     0.000000     0.000000
   19     1.000000    90.000000     0.000000     0.000000     1.000000     0.000000     0.000000     0.000000
   20    -1.000000    90.000000     0.000000     0.000000     1.000000     0.000000     0.000000     0.000000
   21     1.000000    90.000000    -1.000000     0.000000     0.000000     0.000000     0.000000     0.000000
   22    -1.000000    90.000000    -1.000000     0.000000     0.000000     0.000000     0.000000     0.000000
   23     1.000000   180.000000     0.707107     0.000000     0.707107     0.000000     0.000000     0.000000
   24    -1.000000   180.000000     0.707107     0.000000     0.707107     0.000000     0.000000     0.000000
   25     1.000000   120.000000     0.577350    -0.577350     0.577350     0.000000     0.000000     0.000000
   26    -1.000000   120.000000     0.577350    -0.577350     0.577350     0.000000     0.000000     0.000000
   27     1.000000   120.000000    -0.577350    -0.577350     0.577350     0.000000     0.000000     0.000000
   28    -1.000000   120.000000    -0.577350    -0.577350     0.577350     0.000000     0.000000     0.000000
   29     1.000000   180.000000     1.000000     0.000000     0.000000     0.000000     0.000000     0.000000
   30    -1.000000   180.000000     1.000000     0.000000     0.000000     0.000000     0.000000     0.000000
   31     1.000000    90.000000     0.000000    -1.000000     0.000000     0.000000     0.000000     0.000000
   32    -1.000000    90.000000     0.000000    -1.000000     0.000000     0.000000     0.000000     0.000000
   33     1.000000   180.000000     0.707107     0.707107     0.000000     0.000000     0.000000     0.000000
   34    -1.000000   180.000000     0.707107     0.707107     0.000000     0.000000     0.000000     0.000000
   35     1.000000    90.000000     1.000000     0.000000     0.000000     0.000000     0.000000     0.000000
   36    -1.000000    90.000000     1.000000     0.000000     0.000000     0.000000     0.000000     0.000000
   37     1.000000   120.000000     0.577350    -0.577350    -0.577350     0.000000     0.000000     0.000000
   38    -1.000000   120.000000     0.577350    -0.577350    -0.577350     0.000000     0.000000     0.000000
   39     1.000000   180.000000     0.000000     1.000000     0.000000     0.000000     0.000000     0.000000
   40    -1.000000   180.000000     0.000000     1.000000     0.000000     0.000000     0.000000     0.000000
   41     1.000000   120.000000     0.577350     0.577350    -0.577350     0.000000     0.000000     0.000000
   42    -1.000000   120.000000     0.577350     0.577350    -0.577350     0.000000     0.000000     0.000000
   43     1.000000   180.000000     0.000000    -0.707107     0.707107     0.000000     0.000000     0.000000
   44    -1.000000   180.000000     0.000000    -0.707107     0.707107     0.000000     0.000000     0.000000
   45     1.000000   180.000000     0.707107    -0.707107     0.000000     0.000000     0.000000     0.000000
   46    -1.000000   180.000000     0.707107    -0.707107     0.000000     0.000000     0.000000     0.000000
   47     1.000000   180.000000     0.707107     0.000000    -0.707107     0.000000     0.000000     0.000000
   48    -1.000000   180.000000     0.707107     0.000000    -0.707107     0.000000     0.000000     0.000000
 
 Subroutine IBZKPT returns following result:
 ===========================================
 
 Found   1771 irreducible k-points:
 
 Following reciprocal coordinates:
            Coordinates               Weight
  0.000000  0.000000  0.000000      1.000000
  0.024390  0.000000  0.000000      8.000000
  0.048780  0.000000  0.000000      8.000000
  0.073171  0.000000  0.000000      8.000000
  0.097561  0.000000  0.000000      8.000000
  0.121951  0.000000  0.000000      8.000000
  0.146341  0.000000  0.000000      8.000000
  0.170732  0.000000  0.000000      8.000000
  0.195122  0.000000  0.000000      8.000000
  0.219512  0.000000  0.000000      8.000000
  0.243902  0.000000  0.000000      8.000000
  0.268293  0.000000  0.000000      8.000000
  0.292683  0.000000  0.000000      8.000000
  0.317073  0.000000  0.000000      8.000000
  0.341463  0.000000  0.000000      8.000000
  0.365854  0.000000  0.000000      8.000000
  0.390244  0.000000  0.000000      8.000000
  0.414634  0.000000  0.000000      8.000000
  0.439024  0.000000  0.000000      8.000000
  0.463415  0.000000  0.000000      8.000000
  0.487805  0.000000  0.000000      8.000000
  0.024390  0.024390  0.000000      6.000000
  0.048780  0.024390  0.000000     24.000000
  0.073171  0.024390  0.000000     24.000000
  0.097561  0.024390  0.000000     24.000000
  0.121951  0.024390  0.000000     24.000000
  0.146341  0.024390  0.000000     24.000000
  0.170732  0.024390  0.000000     24.000000
  0.195122  0.024390  0.000000     24.000000
  0.219512  0.024390  0.000000     24.000000
  0.243902  0.024390  0.000000     24.000000
  0.268293  0.024390  0.000000     24.000000
  0.292683  0.024390  0.000000     24.000000
  0.317073  0.024390  0.000000     24.000000
  0.341463  0.024390  0.000000     24.000000
  0.365854  0.024390  0.000000     24.000000
  0.390244  0.024390  0.000000     24.000000
  0.414634  0.024390  0.000000     24.000000
  0.439024  0.024390  0.000000     24.000000
  0.463415  0.024390  0.000000     24.000000
  0.487805  0.024390  0.000000     24.000000
 -0.487805  0.024390  0.000000     24.000000
 -0.463415  0.024390  0.000000     24.000000
 -0.439024  0.024390  0.000000     24.000000
 -0.414634  0.024390  0.000000     24.000000
 -0.390244  0.024390  0.000000     24.000000
 -0.365854  0.024390  0.000000     24.000000
 -0.341463  0.024390  0.000000     24.000000
 -0.317073  0.024390  0.000000     24.000000
 -0.292683  0.024390  0.000000     24.000000
 -0.268293  0.024390  0.000000     24.000000
 -0.243902  0.024390  0.000000     24.000000
 -0.219512  0.024390  0.000000     24.000000
 -0.195122  0.024390  0.000000     24.000000
 -0.170732  0.024390  0.000000     24.000000
 -0.146341  0.024390  0.000000     24.000000
 -0.121951  0.024390  0.000000     24.000000
 -0.097561  0.024390  0.000000     24.000000
 -0.073171  0.024390  0.000000     24.000000
 -0.048780  0.024390  0.000000     24.000000
 -0.024390  0.024390  0.000000     12.000000
  0.048780  0.048780  0.000000      6.000000
  0.073171  0.048780  0.000000     24.000000
  0.097561  0.048780  0.000000     24.000000
  0.121951  0.048780  0.000000     24.000000
  0.146341  0.048780  0.000000     24.000000
  0.170732  0.048780  0.000000     24.000000
  0.195122  0.048780  0.000000     24.000000
  0.219512  0.048780  0.000000     24.000000
  0.243902  0.048780  0.000000     24.000000
  0.268293  0.048780  0.000000     24.000000
  0.292683  0.048780  0.000000     24.000000
  0.317073  0.048780  0.000000     24.000000
  0.341463  0.048780  0.000000     24.000000
  0.365854  0.048780  0.000000     24.000000
  0.390244  0.048780  0.000000     24.000000
  0.414634  0.048780  0.000000     24.000000
  0.439024  0.048780  0.000000     24.000000
  0.463415  0.048780  0.000000     24.000000
  0.487805  0.048780  0.000000     24.000000
 -0.487805  0.048780  0.000000     24.000000
 -0.463415  0.048780  0.000000     24.000000
 -0.439024  0.048780  0.000000     24.000000
 -0.414634  0.048780  0.000000     24.000000
 -0.390244  0.048780  0.000000     24.000000
 -0.365854  0.048780  0.000000     24.000000
 -0.341463  0.048780  0.000000     24.000000
 -0.317073  0.048780  0.000000     24.000000
 -0.292683  0.048780  0.000000     24.000000
 -0.268293  0.048780  0.000000     24.000000
 -0.243902  0.048780  0.000000     24.000000
 -0.219512  0.048780  0.000000     24.000000
 -0.195122  0.048780  0.000000     24.000000
 -0.170732  0.048780  0.000000     24.000000
 -0.146341  0.048780  0.000000     24.000000
 -0.121951  0.048780  0.000000     24.000000
 -0.097561  0.048780  0.000000     24.000000
 -0.073171  0.048780  0.000000     24.000000
 -0.048780  0.048780  0.000000     12.000000
  0.073171  0.073171  0.000000      6.000000
  0.097561  0.073171  0.000000     24.000000
  0.121951  0.073171  0.000000     24.000000
  0.146341  0.073171  0.000000     24.000000
  0.170732  0.073171  0.000000     24.000000
  0.195122  0.073171  0.000000     24.000000
  0.219512  0.073171  0.000000     24.000000
  0.243902  0.073171  0.000000     24.000000
  0.268293  0.073171  0.000000     24.000000
  0.292683  0.073171  0.000000     24.000000
  0.317073  0.073171  0.000000     24.000000
  0.341463  0.073171  0.000000     24.000000
  0.365854  0.073171  0.000000     24.000000
  0.390244  0.073171  0.000000     24.000000
  0.414634  0.073171  0.000000     24.000000
  0.439024  0.073171  0.000000     24.000000
  0.463415  0.073171  0.000000     24.000000
  0.487805  0.073171  0.000000     24.000000
 -0.487805  0.073171  0.000000     24.000000
 -0.463415  0.073171  0.000000     24.000000
 -0.439024  0.073171  0.000000     24.000000
 -0.414634  0.073171  0.000000     24.000000
 -0.390244  0.073171  0.000000     24.000000
 -0.365854  0.073171  0.000000     24.000000
 -0.341463  0.073171  0.000000     24.000000
 -0.317073  0.073171  0.000000     24.000000
 -0.292683  0.073171  0.000000     24.000000
 -0.268293  0.073171  0.000000     24.000000
 -0.243902  0.073171  0.000000     24.000000
 -0.219512  0.073171  0.000000     24.000000
 -0.195122  0.073171  0.000000     24.000000
 -0.170732  0.073171  0.000000     24.000000
 -0.146341  0.073171  0.000000     24.000000
 -0.121951  0.073171  0.000000     24.000000
 -0.097561  0.073171  0.000000     24.000000
 -0.073171  0.073171  0.000000     12.000000
  0.097561  0.097561  0.000000      6.000000
  0.121951  0.097561  0.000000     24.000000
  0.146341  0.097561  0.000000     24.000000
  0.170732  0.097561  0.000000     24.000000
  0.195122  0.097561  0.000000     24.000000
  0.219512  0.097561  0.000000     24.000000
  0.243902  0.097561  0.000000     24.000000
  0.268293  0.097561  0.000000     24.000000
  0.292683  0.097561  0.000000     24.000000
  0.317073  0.097561  0.000000     24.000000
  0.341463  0.097561  0.000000     24.000000
  0.365854  0.097561  0.000000     24.000000
  0.390244  0.097561  0.000000     24.000000
  0.414634  0.097561  0.000000     24.000000
  0.439024  0.097561  0.000000     24.000000
  0.463415  0.097561  0.000000     24.000000
  0.487805  0.097561  0.000000     24.000000
 -0.487805  0.097561  0.000000     24.000000
 -0.463415  0.097561  0.000000     24.000000
 -0.439024  0.097561  0.000000     24.000000
 -0.414634  0.097561  0.000000     24.000000
 -0.390244  0.097561  0.000000     24.000000
 -0.365854  0.097561  0.000000     24.000000
 -0.341463  0.097561  0.000000     24.000000
 -0.317073  0.097561  0.000000     24.000000
 -0.292683  0.097561  0.000000     24.000000
 -0.268293  0.097561  0.000000     24.000000
 -0.243902  0.097561  0.000000     24.000000
 -0.219512  0.097561  0.000000     24.000000
 -0.195122  0.097561  0.000000     24.000000
 -0.170732  0.097561  0.000000     24.000000
 -0.146341  0.097561  0.000000     24.000000
 -0.121951  0.097561  0.000000     24.000000
 -0.097561  0.097561  0.000000     12.000000
  0.121951  0.121951  0.000000      6.000000
  0.146341  0.121951  0.000000     24.000000
  0.170732  0.121951  0.000000     24.000000
  0.195122  0.121951  0.000000     24.000000
  0.219512  0.121951  0.000000     24.000000
  0.243902  0.121951  0.000000     24.000000
  0.268293  0.121951  0.000000     24.000000
  0.292683  0.121951  0.000000     24.000000
  0.317073  0.121951  0.000000     24.000000
  0.341463  0.121951  0.000000     24.000000
  0.365854  0.121951  0.000000     24.000000
  0.390244  0.121951  0.000000     24.000000
  0.414634  0.121951  0.000000     24.000000
  0.439024  0.121951  0.000000     24.000000
  0.463415  0.121951  0.000000     24.000000
  0.487805  0.121951  0.000000     24.000000
 -0.487805  0.121951  0.000000     24.000000
 -0.463415  0.121951  0.000000     24.000000
 -0.439024  0.121951  0.000000     24.000000
 -0.414634  0.121951  0.000000     24.000000
 -0.390244  0.121951  0.000000     24.000000
 -0.365854  0.121951  0.000000     24.000000
 -0.341463  0.121951  0.000000     24.000000
 -0.317073  0.121951  0.000000     24.000000
 -0.292683  0.121951  0.000000     24.000000
 -0.268293  0.121951  0.000000     24.000000
 -0.243902  0.121951  0.000000     24.000000
 -0.219512  0.121951  0.000000     24.000000
 -0.195122  0.121951  0.000000     24.000000
 -0.170732  0.121951  0.000000     24.000000
 -0.146341  0.121951  0.000000     24.000000
 -0.121951  0.121951  0.000000     12.000000
  0.146341  0.146341  0.000000      6.000000
  0.170732  0.146341  0.000000     24.000000
  0.195122  0.146341  0.000000     24.000000
  0.219512  0.146341  0.000000     24.000000
  0.243902  0.146341  0.000000     24.000000
  0.268293  0.146341  0.000000     24.000000
  0.292683  0.146341  0.000000     24.000000
  0.317073  0.146341  0.000000     24.000000
  0.341463  0.146341  0.000000     24.000000
  0.365854  0.146341  0.000000     24.000000
  0.390244  0.146341  0.000000     24.000000
  0.414634  0.146341  0.000000     24.000000
  0.439024  0.146341  0.000000     24.000000
  0.463415  0.146341  0.000000     24.000000
  0.487805  0.146341  0.000000     24.000000
 -0.487805  0.146341  0.000000     24.000000
 -0.463415  0.146341  0.000000     24.000000
 -0.439024  0.146341  0.000000     24.000000
 -0.414634  0.146341  0.000000     24.000000
 -0.390244  0.146341  0.000000     24.000000
 -0.365854  0.146341  0.000000     24.000000
 -0.341463  0.146341  0.000000     24.000000
 -0.317073  0.146341  0.000000     24.000000
 -0.292683  0.146341  0.000000     24.000000
 -0.268293  0.146341  0.000000     24.000000
 -0.243902  0.146341  0.000000     24.000000
 -0.219512  0.146341  0.000000     24.000000
 -0.195122  0.146341  0.000000     24.000000
 -0.170732  0.146341  0.000000     24.000000
 -0.146341  0.146341  0.000000     12.000000
  0.170732  0.170732  0.000000      6.000000
  0.195122  0.170732  0.000000     24.000000
  0.219512  0.170732  0.000000     24.000000
  0.243902  0.170732  0.000000     24.000000
  0.268293  0.170732  0.000000     24.000000
  0.292683  0.170732  0.000000     24.000000
  0.317073  0.170732  0.000000     24.000000
  0.341463  0.170732  0.000000     24.000000
  0.365854  0.170732  0.000000     24.000000
  0.390244  0.170732  0.000000     24.000000
  0.414634  0.170732  0.000000     24.000000
  0.439024  0.170732  0.000000     24.000000
  0.463415  0.170732  0.000000     24.000000
  0.487805  0.170732  0.000000     24.000000
 -0.487805  0.170732  0.000000     24.000000
 -0.463415  0.170732  0.000000     24.000000
 -0.439024  0.170732  0.000000     24.000000
 -0.414634  0.170732  0.000000     24.000000
 -0.390244  0.170732  0.000000     24.000000
 -0.365854  0.170732  0.000000     24.000000
 -0.341463  0.170732  0.000000     24.000000
 -0.317073  0.170732  0.000000     24.000000
 -0.292683  0.170732  0.000000     24.000000
 -0.268293  0.170732  0.000000     24.000000
 -0.243902  0.170732  0.000000     24.000000
 -0.219512  0.170732  0.000000     24.000000
 -0.195122  0.170732  0.000000     24.000000
 -0.170732  0.170732  0.000000     12.000000
  0.195122  0.195122  0.000000      6.000000
  0.219512  0.195122  0.000000     24.000000
  0.243902  0.195122  0.000000     24.000000
  0.268293  0.195122  0.000000     24.000000
  0.292683  0.195122  0.000000     24.000000
  0.317073  0.195122  0.000000     24.000000
  0.341463  0.195122  0.000000     24.000000
  0.365854  0.195122  0.000000     24.000000
  0.390244  0.195122  0.000000     24.000000
  0.414634  0.195122  0.000000     24.000000
  0.439024  0.195122  0.000000     24.000000
  0.463415  0.195122  0.000000     24.000000
  0.487805  0.195122  0.000000     24.000000
 -0.487805  0.195122  0.000000     24.000000
 -0.463415  0.195122  0.000000     24.000000
 -0.439024  0.195122  0.000000     24.000000
 -0.414634  0.195122  0.000000     24.000000
 -0.390244  0.195122  0.000000     24.000000
 -0.365854  0.195122  0.000000     24.000000
 -0.341463  0.195122  0.000000     24.000000
 -0.317073  0.195122  0.000000     24.000000
 -0.292683  0.195122  0.000000     24.000000
 -0.268293  0.195122  0.000000     24.000000
 -0.243902  0.195122  0.000000     24.000000
 -0.219512  0.195122  0.000000     24.000000
 -0.195122  0.195122  0.000000     12.000000
  0.219512  0.219512  0.000000      6.000000
  0.243902  0.219512  0.000000     24.000000
  0.268293  0.219512  0.000000     24.000000
  0.292683  0.219512  0.000000     24.000000
  0.317073  0.219512  0.000000     24.000000
  0.341463  0.219512  0.000000     24.000000
  0.365854  0.219512  0.000000     24.000000
  0.390244  0.219512  0.000000     24.000000
  0.414634  0.219512  0.000000     24.000000
  0.439024  0.219512  0.000000     24.000000
  0.463415  0.219512  0.000000     24.000000
  0.487805  0.219512  0.000000     24.000000
 -0.487805  0.219512  0.000000     24.000000
 -0.463415  0.219512  0.000000     24.000000
 -0.439024  0.219512  0.000000     24.000000
 -0.414634  0.219512  0.000000     24.000000
 -0.390244  0.219512  0.000000     24.000000
 -0.365854  0.219512  0.000000     24.000000
 -0.341463  0.219512  0.000000     24.000000
 -0.317073  0.219512  0.000000     24.000000
 -0.292683  0.219512  0.000000     24.000000
 -0.268293  0.219512  0.000000     24.000000
 -0.243902  0.219512  0.000000     24.000000
 -0.219512  0.219512  0.000000     12.000000
  0.243902  0.243902  0.000000      6.000000
  0.268293  0.243902  0.000000     24.000000
  0.292683  0.243902  0.000000     24.000000
  0.317073  0.243902  0.000000     24.000000
  0.341463  0.243902  0.000000     24.000000
  0.365854  0.243902  0.000000     24.000000
  0.390244  0.243902  0.000000     24.000000
  0.414634  0.243902  0.000000     24.000000
  0.439024  0.243902  0.000000     24.000000
  0.463415  0.243902  0.000000     24.000000
  0.487805  0.243902  0.000000     24.000000
 -0.487805  0.243902  0.000000     24.000000
 -0.463415  0.243902  0.000000     24.000000
 -0.439024  0.243902  0.000000     24.000000
 -0.414634  0.243902  0.000000     24.000000
 -0.390244  0.243902  0.000000     24.000000
 -0.365854  0.243902  0.000000     24.000000
 -0.341463  0.243902  0.000000     24.000000
 -0.317073  0.243902  0.000000     24.000000
 -0.292683  0.243902  0.000000     24.000000
 -0.268293  0.243902  0.000000     24.000000
 -0.243902  0.243902  0.000000     12.000000
  0.268293  0.268293  0.000000      6.000000
  0.292683  0.268293  0.000000     24.000000
  0.317073  0.268293  0.000000     24.000000
  0.341463  0.268293  0.000000     24.000000
  0.365854  0.268293  0.000000     24.000000
  0.390244  0.268293  0.000000     24.000000
  0.414634  0.268293  0.000000     24.000000
  0.439024  0.268293  0.000000     24.000000
  0.463415  0.268293  0.000000     24.000000
  0.487805  0.268293  0.000000     24.000000
 -0.487805  0.268293  0.000000     24.000000
 -0.463415  0.268293  0.000000     24.000000
 -0.439024  0.268293  0.000000     24.000000
 -0.414634  0.268293  0.000000     24.000000
 -0.390244  0.268293  0.000000     24.000000
 -0.365854  0.268293  0.000000     24.000000
 -0.341463  0.268293  0.000000     24.000000
 -0.317073  0.268293  0.000000     24.000000
 -0.292683  0.268293  0.000000     24.000000
 -0.268293  0.268293  0.000000     12.000000
  0.292683  0.292683  0.000000      6.000000
  0.317073  0.292683  0.000000     24.000000
  0.341463  0.292683  0.000000     24.000000
  0.365854  0.292683  0.000000     24.000000
  0.390244  0.292683  0.000000     24.000000
  0.414634  0.292683  0.000000     24.000000
  0.439024  0.292683  0.000000     24.000000
  0.463415  0.292683  0.000000     24.000000
  0.487805  0.292683  0.000000     24.000000
 -0.487805  0.292683  0.000000     24.000000
 -0.463415  0.292683  0.000000     24.000000
 -0.439024  0.292683  0.000000     24.000000
 -0.414634  0.292683  0.000000     24.000000
 -0.390244  0.292683  0.000000     24.000000
 -0.365854  0.292683  0.000000     24.000000
 -0.341463  0.292683  0.000000     24.000000
 -0.317073  0.292683  0.000000     24.000000
 -0.292683  0.292683  0.000000     12.000000
  0.317073  0.317073  0.000000      6.000000
  0.341463  0.317073  0.000000     24.000000
  0.365854  0.317073  0.000000     24.000000
  0.390244  0.317073  0.000000     24.000000
  0.414634  0.317073  0.000000     24.000000
  0.439024  0.317073  0.000000     24.000000
  0.463415  0.317073  0.000000     24.000000
  0.487805  0.317073  0.000000     24.000000
 -0.487805  0.317073  0.000000     24.000000
 -0.463415  0.317073  0.000000     24.000000
 -0.439024  0.317073  0.000000     24.000000
 -0.414634  0.317073  0.000000     24.000000
 -0.390244  0.317073  0.000000     24.000000
 -0.365854  0.317073  0.000000     24.000000
 -0.341463  0.317073  0.000000     24.000000
 -0.317073  0.317073  0.000000     12.000000
  0.341463  0.341463  0.000000      6.000000
  0.365854  0.341463  0.000000     24.000000
  0.390244  0.341463  0.000000     24.000000
  0.414634  0.341463  0.000000     24.000000
  0.439024  0.341463  0.000000     24.000000
  0.463415  0.341463  0.000000     24.000000
  0.487805  0.341463  0.000000     24.000000
 -0.487805  0.341463  0.000000     24.000000
 -0.463415  0.341463  0.000000     24.000000
 -0.439024  0.341463  0.000000     24.000000
 -0.414634  0.341463  0.000000     24.000000
 -0.390244  0.341463  0.000000     24.000000
 -0.365854  0.341463  0.000000     24.000000
 -0.341463  0.341463  0.000000     12.000000
  0.365854  0.365854  0.000000      6.000000
  0.390244  0.365854  0.000000     24.000000
  0.414634  0.365854  0.000000     24.000000
  0.439024  0.365854  0.000000     24.000000
  0.463415  0.365854  0.000000     24.000000
  0.487805  0.365854  0.000000     24.000000
 -0.487805  0.365854  0.000000     24.000000
 -0.463415  0.365854  0.000000     24.000000
 -0.439024  0.365854  0.000000     24.000000
 -0.414634  0.365854  0.000000     24.000000
 -0.390244  0.365854  0.000000     24.000000
 -0.365854  0.365854  0.000000     12.000000
  0.390244  0.390244  0.000000      6.000000
  0.414634  0.390244  0.000000     24.000000
  0.439024  0.390244  0.000000     24.000000
  0.463415  0.390244  0.000000     24.000000
  0.487805  0.390244  0.000000     24.000000
 -0.487805  0.390244  0.000000     24.000000
 -0.463415  0.390244  0.000000     24.000000
 -0.439024  0.390244  0.000000     24.000000
 -0.414634  0.390244  0.000000     24.000000
 -0.390244  0.390244  0.000000     12.000000
  0.414634  0.414634  0.000000      6.000000
  0.439024  0.414634  0.000000     24.000000
  0.463415  0.414634  0.000000     24.000000
  0.487805  0.414634  0.000000     24.000000
 -0.487805  0.414634  0.000000     24.000000
 -0.463415  0.414634  0.000000     24.000000
 -0.439024  0.414634  0.000000     24.000000
 -0.414634  0.414634  0.000000     12.000000
  0.439024  0.439024  0.000000      6.000000
  0.463415  0.439024  0.000000     24.000000
  0.487805  0.439024  0.000000     24.000000
 -0.487805  0.439024  0.000000     24.000000
 -0.463415  0.439024  0.000000     24.000000
 -0.439024  0.439024  0.000000     12.000000
  0.463415  0.463415  0.000000      6.000000
  0.487805  0.463415  0.000000     24.000000
 -0.487805  0.463415  0.000000     24.000000
 -0.463415  0.463415  0.000000     12.000000
  0.487805  0.487805  0.000000      6.000000
 -0.487805  0.487805  0.000000     12.000000
  0.073171  0.048780  0.024390     24.000000
  0.097561  0.048780  0.024390     48.000000
  0.121951  0.048780  0.024390     48.000000
  0.146341  0.048780  0.024390     48.000000
  0.170732  0.048780  0.024390     48.000000
  0.195122  0.048780  0.024390     48.000000
  0.219512  0.048780  0.024390     48.000000
  0.243902  0.048780  0.024390     48.000000
  0.268293  0.048780  0.024390     48.000000
  0.292683  0.048780  0.024390     48.000000
  0.317073  0.048780  0.024390     48.000000
  0.341463  0.048780  0.024390     48.000000
  0.365854  0.048780  0.024390     48.000000
  0.390244  0.048780  0.024390     48.000000
  0.414634  0.048780  0.024390     48.000000
  0.439024  0.048780  0.024390     48.000000
  0.463415  0.048780  0.024390     48.000000
  0.487805  0.048780  0.024390     48.000000
 -0.487805  0.048780  0.024390     48.000000
  0.097561  0.073171  0.024390     24.000000
  0.121951  0.073171  0.024390     48.000000
  0.146341  0.073171  0.024390     48.000000
  0.170732  0.073171  0.024390     48.000000
  0.195122  0.073171  0.024390     48.000000
  0.219512  0.073171  0.024390     48.000000
  0.243902  0.073171  0.024390     48.000000
  0.268293  0.073171  0.024390     48.000000
  0.292683  0.073171  0.024390     48.000000
  0.317073  0.073171  0.024390     48.000000
  0.341463  0.073171  0.024390     48.000000
  0.365854  0.073171  0.024390     48.000000
  0.390244  0.073171  0.024390     48.000000
  0.414634  0.073171  0.024390     48.000000
  0.439024  0.073171  0.024390     48.000000
  0.463415  0.073171  0.024390     48.000000
  0.487805  0.073171  0.024390     48.000000
 -0.487805  0.073171  0.024390     48.000000
 -0.463415  0.073171  0.024390     48.000000
 -0.439024  0.073171  0.024390     48.000000
 -0.414634  0.073171  0.024390     48.000000
 -0.390244  0.073171  0.024390     48.000000
 -0.365854  0.073171  0.024390     48.000000
 -0.341463  0.073171  0.024390     48.000000
 -0.317073  0.073171  0.024390     48.000000
 -0.292683  0.073171  0.024390     48.000000
 -0.268293  0.073171  0.024390     48.000000
 -0.243902  0.073171  0.024390     48.000000
 -0.219512  0.073171  0.024390     48.000000
 -0.195122  0.073171  0.024390     48.000000
 -0.170732  0.073171  0.024390     48.000000
 -0.146341  0.073171  0.024390     48.000000
 -0.121951  0.073171  0.024390     48.000000
 -0.097561  0.073171  0.024390     48.000000
 -0.073171  0.073171  0.024390     48.000000
 -0.048780  0.073171  0.024390     24.000000
  0.121951  0.097561  0.024390     24.000000
  0.146341  0.097561  0.024390     48.000000
  0.170732  0.097561  0.024390     48.000000
  0.195122  0.097561  0.024390     48.000000
  0.219512  0.097561  0.024390     48.000000
  0.243902  0.097561  0.024390     48.000000
  0.268293  0.097561  0.024390     48.000000
  0.292683  0.097561  0.024390     48.000000
  0.317073  0.097561  0.024390     48.000000
  0.341463  0.097561  0.024390     48.000000
  0.365854  0.097561  0.024390     48.000000
  0.390244  0.097561  0.024390     48.000000
  0.414634  0.097561  0.024390     48.000000
  0.439024  0.097561  0.024390     48.000000
  0.463415  0.097561  0.024390     48.000000
  0.487805  0.097561  0.024390     48.000000
 -0.487805  0.097561  0.024390     48.000000
 -0.463415  0.097561  0.024390     48.000000
 -0.439024  0.097561  0.024390     48.000000
 -0.414634  0.097561  0.024390     48.000000
 -0.390244  0.097561  0.024390     48.000000
 -0.365854  0.097561  0.024390     48.000000
 -0.341463  0.097561  0.024390     48.000000
 -0.317073  0.097561  0.024390     48.000000
 -0.292683  0.097561  0.024390     48.000000
 -0.268293  0.097561  0.024390     48.000000
 -0.243902  0.097561  0.024390     48.000000
 -0.219512  0.097561  0.024390     48.000000
 -0.195122  0.097561  0.024390     48.000000
 -0.170732  0.097561  0.024390     48.000000
 -0.146341  0.097561  0.024390     48.000000
 -0.121951  0.097561  0.024390     48.000000
 -0.097561  0.097561  0.024390     48.000000
 -0.073171  0.097561  0.024390     24.000000
  0.146341  0.121951  0.024390     24.000000
  0.170732  0.121951  0.024390     48.000000
  0.195122  0.121951  0.024390     48.000000
  0.219512  0.121951  0.024390     48.000000
  0.243902  0.121951  0.024390     48.000000
  0.268293  0.121951  0.024390     48.000000
  0.292683  0.121951  0.024390     48.000000
  0.317073  0.121951  0.024390     48.000000
  0.341463  0.121951  0.024390     48.000000
  0.365854  0.121951  0.024390     48.000000
  0.390244  0.121951  0.024390     48.000000
  0.414634  0.121951  0.024390     48.000000
  0.439024  0.121951  0.024390     48.000000
  0.463415  0.121951  0.024390     48.000000
  0.487805  0.121951  0.024390     48.000000
 -0.487805  0.121951  0.024390     48.000000
 -0.463415  0.121951  0.024390     48.000000
 -0.439024  0.121951  0.024390     48.000000
 -0.414634  0.121951  0.024390     48.000000
 -0.390244  0.121951  0.024390     48.000000
 -0.365854  0.121951  0.024390     48.000000
 -0.341463  0.121951  0.024390     48.000000
 -0.317073  0.121951  0.024390     48.000000
 -0.292683  0.121951  0.024390     48.000000
 -0.268293  0.121951  0.024390     48.000000
 -0.243902  0.121951  0.024390     48.000000
 -0.219512  0.121951  0.024390     48.000000
 -0.195122  0.121951  0.024390     48.000000
 -0.170732  0.121951  0.024390     48.000000
 -0.146341  0.121951  0.024390     48.000000
 -0.121951  0.121951  0.024390     48.000000
 -0.097561  0.121951  0.024390     24.000000
  0.170732  0.146341  0.024390     24.000000
  0.195122  0.146341  0.024390     48.000000
  0.219512  0.146341  0.024390     48.000000
  0.243902  0.146341  0.024390     48.000000
  0.268293  0.146341  0.024390     48.000000
  0.292683  0.146341  0.024390     48.000000
  0.317073  0.146341  0.024390     48.000000
  0.341463  0.146341  0.024390     48.000000
  0.365854  0.146341  0.024390     48.000000
  0.390244  0.146341  0.024390     48.000000
  0.414634  0.146341  0.024390     48.000000
  0.439024  0.146341  0.024390     48.000000
  0.463415  0.146341  0.024390     48.000000
  0.487805  0.146341  0.024390     48.000000
 -0.487805  0.146341  0.024390     48.000000
 -0.463415  0.146341  0.024390     48.000000
 -0.439024  0.146341  0.024390     48.000000
 -0.414634  0.146341  0.024390     48.000000
 -0.390244  0.146341  0.024390     48.000000
 -0.365854  0.146341  0.024390     48.000000
 -0.341463  0.146341  0.024390     48.000000
 -0.317073  0.146341  0.024390     48.000000
 -0.292683  0.146341  0.024390     48.000000
 -0.268293  0.146341  0.024390     48.000000
 -0.243902  0.146341  0.024390     48.000000
 -0.219512  0.146341  0.024390     48.000000
 -0.195122  0.146341  0.024390     48.000000
 -0.170732  0.146341  0.024390     48.000000
 -0.146341  0.146341  0.024390     48.000000
 -0.121951  0.146341  0.024390     24.000000
  0.195122  0.170732  0.024390     24.000000
  0.219512  0.170732  0.024390     48.000000
  0.243902  0.170732  0.024390     48.000000
  0.268293  0.170732  0.024390     48.000000
  0.292683  0.170732  0.024390     48.000000
  0.317073  0.170732  0.024390     48.000000
  0.341463  0.170732  0.024390     48.000000
  0.365854  0.170732  0.024390     48.000000
  0.390244  0.170732  0.024390     48.000000
  0.414634  0.170732  0.024390     48.000000
  0.439024  0.170732  0.024390     48.000000
  0.463415  0.170732  0.024390     48.000000
  0.487805  0.170732  0.024390     48.000000
 -0.487805  0.170732  0.024390     48.000000
 -0.463415  0.170732  0.024390     48.000000
 -0.439024  0.170732  0.024390     48.000000
 -0.414634  0.170732  0.024390     48.000000
 -0.390244  0.170732  0.024390     48.000000
 -0.365854  0.170732  0.024390     48.000000
 -0.341463  0.170732  0.024390     48.000000
 -0.317073  0.170732  0.024390     48.000000
 -0.292683  0.170732  0.024390     48.000000
 -0.268293  0.170732  0.024390     48.000000
 -0.243902  0.170732  0.024390     48.000000
 -0.219512  0.170732  0.024390     48.000000
 -0.195122  0.170732  0.024390     48.000000
 -0.170732  0.170732  0.024390     48.000000
 -0.146341  0.170732  0.024390     24.000000
  0.219512  0.195122  0.024390     24.000000
  0.243902  0.195122  0.024390     48.000000
  0.268293  0.195122  0.024390     48.000000
  0.292683  0.195122  0.024390     48.000000
  0.317073  0.195122  0.024390     48.000000
  0.341463  0.195122  0.024390     48.000000
  0.365854  0.195122  0.024390     48.000000
  0.390244  0.195122  0.024390     48.000000
  0.414634  0.195122  0.024390     48.000000
  0.439024  0.195122  0.024390     48.000000
  0.463415  0.195122  0.024390     48.000000
  0.487805  0.195122  0.024390     48.000000
 -0.487805  0.195122  0.024390     48.000000
 -0.463415  0.195122  0.024390     48.000000
 -0.439024  0.195122  0.024390     48.000000
 -0.414634  0.195122  0.024390     48.000000
 -0.390244  0.195122  0.024390     48.000000
 -0.365854  0.195122  0.024390     48.000000
 -0.341463  0.195122  0.024390     48.000000
 -0.317073  0.195122  0.024390     48.000000
 -0.292683  0.195122  0.024390     48.000000
 -0.268293  0.195122  0.024390     48.000000
 -0.243902  0.195122  0.024390     48.000000
 -0.219512  0.195122  0.024390     48.000000
 -0.195122  0.195122  0.024390     48.000000
 -0.170732  0.195122  0.024390     24.000000
  0.243902  0.219512  0.024390     24.000000
  0.268293  0.219512  0.024390     48.000000
  0.292683  0.219512  0.024390     48.000000
  0.317073  0.219512  0.024390     48.000000
  0.341463  0.219512  0.024390     48.000000
  0.365854  0.219512  0.024390     48.000000
  0.390244  0.219512  0.024390     48.000000
  0.414634  0.219512  0.024390     48.000000
  0.439024  0.219512  0.024390     48.000000
  0.463415  0.219512  0.024390     48.000000
  0.487805  0.219512  0.024390     48.000000
 -0.487805  0.219512  0.024390     48.000000
 -0.463415  0.219512  0.024390     48.000000
 -0.439024  0.219512  0.024390     48.000000
 -0.414634  0.219512  0.024390     48.000000
 -0.390244  0.219512  0.024390     48.000000
 -0.365854  0.219512  0.024390     48.000000
 -0.341463  0.219512  0.024390     48.000000
 -0.317073  0.219512  0.024390     48.000000
 -0.292683  0.219512  0.024390     48.000000
 -0.268293  0.219512  0.024390     48.000000
 -0.243902  0.219512  0.024390     48.000000
 -0.219512  0.219512  0.024390     48.000000
 -0.195122  0.219512  0.024390     24.000000
  0.268293  0.243902  0.024390     24.000000
  0.292683  0.243902  0.024390     48.000000
  0.317073  0.243902  0.024390     48.000000
  0.341463  0.243902  0.024390     48.000000
  0.365854  0.243902  0.024390     48.000000
  0.390244  0.243902  0.024390     48.000000
  0.414634  0.243902  0.024390     48.000000
  0.439024  0.243902  0.024390     48.000000
  0.463415  0.243902  0.024390     48.000000
  0.487805  0.243902  0.024390     48.000000
 -0.487805  0.243902  0.024390     48.000000
 -0.463415  0.243902  0.024390     48.000000
 -0.439024  0.243902  0.024390     48.000000
 -0.414634  0.243902  0.024390     48.000000
 -0.390244  0.243902  0.024390     48.000000
 -0.365854  0.243902  0.024390     48.000000
 -0.341463  0.243902  0.024390     48.000000
 -0.317073  0.243902  0.024390     48.000000
 -0.292683  0.243902  0.024390     48.000000
 -0.268293  0.243902  0.024390     48.000000
 -0.243902  0.243902  0.024390     48.000000
 -0.219512  0.243902  0.024390     24.000000
  0.292683  0.268293  0.024390     24.000000
  0.317073  0.268293  0.024390     48.000000
  0.341463  0.268293  0.024390     48.000000
  0.365854  0.268293  0.024390     48.000000
  0.390244  0.268293  0.024390     48.000000
  0.414634  0.268293  0.024390     48.000000
  0.439024  0.268293  0.024390     48.000000
  0.463415  0.268293  0.024390     48.000000
  0.487805  0.268293  0.024390     48.000000
 -0.487805  0.268293  0.024390     48.000000
 -0.463415  0.268293  0.024390     48.000000
 -0.439024  0.268293  0.024390     48.000000
 -0.414634  0.268293  0.024390     48.000000
 -0.390244  0.268293  0.024390     48.000000
 -0.365854  0.268293  0.024390     48.000000
 -0.341463  0.268293  0.024390     48.000000
 -0.317073  0.268293  0.024390     48.000000
 -0.292683  0.268293  0.024390     48.000000
 -0.268293  0.268293  0.024390     48.000000
 -0.243902  0.268293  0.024390     24.000000
  0.317073  0.292683  0.024390     24.000000
  0.341463  0.292683  0.024390     48.000000
  0.365854  0.292683  0.024390     48.000000
  0.390244  0.292683  0.024390     48.000000
  0.414634  0.292683  0.024390     48.000000
  0.439024  0.292683  0.024390     48.000000
  0.463415  0.292683  0.024390     48.000000
  0.487805  0.292683  0.024390     48.000000
 -0.487805  0.292683  0.024390     48.000000
 -0.463415  0.292683  0.024390     48.000000
 -0.439024  0.292683  0.024390     48.000000
 -0.414634  0.292683  0.024390     48.000000
 -0.390244  0.292683  0.024390     48.000000
 -0.365854  0.292683  0.024390     48.000000
 -0.341463  0.292683  0.024390     48.000000
 -0.317073  0.292683  0.024390     48.000000
 -0.292683  0.292683  0.024390     48.000000
 -0.268293  0.292683  0.024390     24.000000
  0.341463  0.317073  0.024390     24.000000
  0.365854  0.317073  0.024390     48.000000
  0.390244  0.317073  0.024390     48.000000
  0.414634  0.317073  0.024390     48.000000
  0.439024  0.317073  0.024390     48.000000
  0.463415  0.317073  0.024390     48.000000
  0.487805  0.317073  0.024390     48.000000
 -0.487805  0.317073  0.024390     48.000000
 -0.463415  0.317073  0.024390     48.000000
 -0.439024  0.317073  0.024390     48.000000
 -0.414634  0.317073  0.024390     48.000000
 -0.390244  0.317073  0.024390     48.000000
 -0.365854  0.317073  0.024390     48.000000
 -0.341463  0.317073  0.024390     48.000000
 -0.317073  0.317073  0.024390     48.000000
 -0.292683  0.317073  0.024390     24.000000
  0.365854  0.341463  0.024390     24.000000
  0.390244  0.341463  0.024390     48.000000
  0.414634  0.341463  0.024390     48.000000
  0.439024  0.341463  0.024390     48.000000
  0.463415  0.341463  0.024390     48.000000
  0.487805  0.341463  0.024390     48.000000
 -0.487805  0.341463  0.024390     48.000000
 -0.463415  0.341463  0.024390     48.000000
 -0.439024  0.341463  0.024390     48.000000
 -0.414634  0.341463  0.024390     48.000000
 -0.390244  0.341463  0.024390     48.000000
 -0.365854  0.341463  0.024390     48.000000
 -0.341463  0.341463  0.024390     48.000000
 -0.317073  0.341463  0.024390     24.000000
  0.390244  0.365854  0.024390     24.000000
  0.414634  0.365854  0.024390     48.000000
  0.439024  0.365854  0.024390     48.000000
  0.463415  0.365854  0.024390     48.000000
  0.487805  0.365854  0.024390     48.000000
 -0.487805  0.365854  0.024390     48.000000
 -0.463415  0.365854  0.024390     48.000000
 -0.439024  0.365854  0.024390     48.000000
 -0.414634  0.365854  0.024390     48.000000
 -0.390244  0.365854  0.024390     48.000000
 -0.365854  0.365854  0.024390     48.000000
 -0.341463  0.365854  0.024390     24.000000
  0.414634  0.390244  0.024390     24.000000
  0.439024  0.390244  0.024390     48.000000
  0.463415  0.390244  0.024390     48.000000
  0.487805  0.390244  0.024390     48.000000
 -0.487805  0.390244  0.024390     48.000000
 -0.463415  0.390244  0.024390     48.000000
 -0.439024  0.390244  0.024390     48.000000
 -0.414634  0.390244  0.024390     48.000000
 -0.390244  0.390244  0.024390     48.000000
 -0.365854  0.390244  0.024390     24.000000
  0.439024  0.414634  0.024390     24.000000
  0.463415  0.414634  0.024390     48.000000
  0.487805  0.414634  0.024390     48.000000
 -0.487805  0.414634  0.024390     48.000000
 -0.463415  0.414634  0.024390     48.000000
 -0.439024  0.414634  0.024390     48.000000
 -0.414634  0.414634  0.024390     48.000000
 -0.390244  0.414634  0.024390     24.000000
  0.463415  0.439024  0.024390     24.000000
  0.487805  0.439024  0.024390     48.000000
 -0.487805  0.439024  0.024390     48.000000
 -0.463415  0.439024  0.024390     48.000000
 -0.439024  0.439024  0.024390     48.000000
 -0.414634  0.439024  0.024390     24.000000
  0.487805  0.463415  0.024390     24.000000
 -0.487805  0.463415  0.024390     48.000000
 -0.463415  0.463415  0.024390     48.000000
 -0.439024  0.463415  0.024390     24.000000
 -0.487805  0.487805  0.024390     24.000000
 -0.463415  0.487805  0.024390     24.000000
  0.146341  0.097561  0.048780     24.000000
  0.170732  0.097561  0.048780     48.000000
  0.195122  0.097561  0.048780     48.000000
  0.219512  0.097561  0.048780     48.000000
  0.243902  0.097561  0.048780     48.000000
  0.268293  0.097561  0.048780     48.000000
  0.292683  0.097561  0.048780     48.000000
  0.317073  0.097561  0.048780     48.000000
  0.341463  0.097561  0.048780     48.000000
  0.365854  0.097561  0.048780     48.000000
  0.390244  0.097561  0.048780     48.000000
  0.414634  0.097561  0.048780     48.000000
  0.439024  0.097561  0.048780     48.000000
  0.463415  0.097561  0.048780     48.000000
  0.487805  0.097561  0.048780     48.000000
 -0.487805  0.097561  0.048780     48.000000
 -0.463415  0.097561  0.048780     48.000000
  0.170732  0.121951  0.048780     24.000000
  0.195122  0.121951  0.048780     48.000000
  0.219512  0.121951  0.048780     48.000000
  0.243902  0.121951  0.048780     48.000000
  0.268293  0.121951  0.048780     48.000000
  0.292683  0.121951  0.048780     48.000000
  0.317073  0.121951  0.048780     48.000000
  0.341463  0.121951  0.048780     48.000000
  0.365854  0.121951  0.048780     48.000000
  0.390244  0.121951  0.048780     48.000000
  0.414634  0.121951  0.048780     48.000000
  0.439024  0.121951  0.048780     48.000000
  0.463415  0.121951  0.048780     48.000000
  0.487805  0.121951  0.048780     48.000000
 -0.487805  0.121951  0.048780     48.000000
 -0.463415  0.121951  0.048780     48.000000
 -0.439024  0.121951  0.048780     48.000000
 -0.414634  0.121951  0.048780     48.000000
 -0.390244  0.121951  0.048780     48.000000
 -0.365854  0.121951  0.048780     48.000000
 -0.341463  0.121951  0.048780     48.000000
 -0.317073  0.121951  0.048780     48.000000
 -0.292683  0.121951  0.048780     48.000000
 -0.268293  0.121951  0.048780     48.000000
 -0.243902  0.121951  0.048780     48.000000
 -0.219512  0.121951  0.048780     48.000000
 -0.195122  0.121951  0.048780     48.000000
 -0.170732  0.121951  0.048780     48.000000
 -0.146341  0.121951  0.048780     48.000000
 -0.121951  0.121951  0.048780     48.000000
 -0.097561  0.121951  0.048780     48.000000
 -0.073171  0.121951  0.048780     24.000000
  0.195122  0.146341  0.048780     24.000000
  0.219512  0.146341  0.048780     48.000000
  0.243902  0.146341  0.048780     48.000000
  0.268293  0.146341  0.048780     48.000000
  0.292683  0.146341  0.048780     48.000000
  0.317073  0.146341  0.048780     48.000000
  0.341463  0.146341  0.048780     48.000000
  0.365854  0.146341  0.048780     48.000000
  0.390244  0.146341  0.048780     48.000000
  0.414634  0.146341  0.048780     48.000000
  0.439024  0.146341  0.048780     48.000000
  0.463415  0.146341  0.048780     48.000000
  0.487805  0.146341  0.048780     48.000000
 -0.487805  0.146341  0.048780     48.000000
 -0.463415  0.146341  0.048780     48.000000
 -0.439024  0.146341  0.048780     48.000000
 -0.414634  0.146341  0.048780     48.000000
 -0.390244  0.146341  0.048780     48.000000
 -0.365854  0.146341  0.048780     48.000000
 -0.341463  0.146341  0.048780     48.000000
 -0.317073  0.146341  0.048780     48.000000
 -0.292683  0.146341  0.048780     48.000000
 -0.268293  0.146341  0.048780     48.000000
 -0.243902  0.146341  0.048780     48.000000
 -0.219512  0.146341  0.048780     48.000000
 -0.195122  0.146341  0.048780     48.000000
 -0.170732  0.146341  0.048780     48.000000
 -0.146341  0.146341  0.048780     48.000000
 -0.121951  0.146341  0.048780     48.000000
 -0.097561  0.146341  0.048780     24.000000
  0.219512  0.170732  0.048780     24.000000
  0.243902  0.170732  0.048780     48.000000
  0.268293  0.170732  0.048780     48.000000
  0.292683  0.170732  0.048780     48.000000
  0.317073  0.170732  0.048780     48.000000
  0.341463  0.170732  0.048780     48.000000
  0.365854  0.170732  0.048780     48.000000
  0.390244  0.170732  0.048780     48.000000
  0.414634  0.170732  0.048780     48.000000
  0.439024  0.170732  0.048780     48.000000
  0.463415  0.170732  0.048780     48.000000
  0.487805  0.170732  0.048780     48.000000
 -0.487805  0.170732  0.048780     48.000000
 -0.463415  0.170732  0.048780     48.000000
 -0.439024  0.170732  0.048780     48.000000
 -0.414634  0.170732  0.048780     48.000000
 -0.390244  0.170732  0.048780     48.000000
 -0.365854  0.170732  0.048780     48.000000
 -0.341463  0.170732  0.048780     48.000000
 -0.317073  0.170732  0.048780     48.000000
 -0.292683  0.170732  0.048780     48.000000
 -0.268293  0.170732  0.048780     48.000000
 -0.243902  0.170732  0.048780     48.000000
 -0.219512  0.170732  0.048780     48.000000
 -0.195122  0.170732  0.048780     48.000000
 -0.170732  0.170732  0.048780     48.000000
 -0.146341  0.170732  0.048780     48.000000
 -0.121951  0.170732  0.048780     24.000000
  0.243902  0.195122  0.048780     24.000000
  0.268293  0.195122  0.048780     48.000000
  0.292683  0.195122  0.048780     48.000000
  0.317073  0.195122  0.048780     48.000000
  0.341463  0.195122  0.048780     48.000000
  0.365854  0.195122  0.048780     48.000000
  0.390244  0.195122  0.048780     48.000000
  0.414634  0.195122  0.048780     48.000000
  0.439024  0.195122  0.048780     48.000000
  0.463415  0.195122  0.048780     48.000000
  0.487805  0.195122  0.048780     48.000000
 -0.487805  0.195122  0.048780     48.000000
 -0.463415  0.195122  0.048780     48.000000
 -0.439024  0.195122  0.048780     48.000000
 -0.414634  0.195122  0.048780     48.000000
 -0.390244  0.195122  0.048780     48.000000
 -0.365854  0.195122  0.048780     48.000000
 -0.341463  0.195122  0.048780     48.000000
 -0.317073  0.195122  0.048780     48.000000
 -0.292683  0.195122  0.048780     48.000000
 -0.268293  0.195122  0.048780     48.000000
 -0.243902  0.195122  0.048780     48.000000
 -0.219512  0.195122  0.048780     48.000000
 -0.195122  0.195122  0.048780     48.000000
 -0.170732  0.195122  0.048780     48.000000
 -0.146341  0.195122  0.048780     24.000000
  0.268293  0.219512  0.048780     24.000000
  0.292683  0.219512  0.048780     48.000000
  0.317073  0.219512  0.048780     48.000000
  0.341463  0.219512  0.048780     48.000000
  0.365854  0.219512  0.048780     48.000000
  0.390244  0.219512  0.048780     48.000000
  0.414634  0.219512  0.048780     48.000000
  0.439024  0.219512  0.048780     48.000000
  0.463415  0.219512  0.048780     48.000000
  0.487805  0.219512  0.048780     48.000000
 -0.487805  0.219512  0.048780     48.000000
 -0.463415  0.219512  0.048780     48.000000
 -0.439024  0.219512  0.048780     48.000000
 -0.414634  0.219512  0.048780     48.000000
 -0.390244  0.219512  0.048780     48.000000
 -0.365854  0.219512  0.048780     48.000000
 -0.341463  0.219512  0.048780     48.000000
 -0.317073  0.219512  0.048780     48.000000
 -0.292683  0.219512  0.048780     48.000000
 -0.268293  0.219512  0.048780     48.000000
 -0.243902  0.219512  0.048780     48.000000
 -0.219512  0.219512  0.048780     48.000000
 -0.195122  0.219512  0.048780     48.000000
 -0.170732  0.219512  0.048780     24.000000
  0.292683  0.243902  0.048780     24.000000
  0.317073  0.243902  0.048780     48.000000
  0.341463  0.243902  0.048780     48.000000
  0.365854  0.243902  0.048780     48.000000
  0.390244  0.243902  0.048780     48.000000
  0.414634  0.243902  0.048780     48.000000
  0.439024  0.243902  0.048780     48.000000
  0.463415  0.243902  0.048780     48.000000
  0.487805  0.243902  0.048780     48.000000
 -0.487805  0.243902  0.048780     48.000000
 -0.463415  0.243902  0.048780     48.000000
 -0.439024  0.243902  0.048780     48.000000
 -0.414634  0.243902  0.048780     48.000000
 -0.390244  0.243902  0.048780     48.000000
 -0.365854  0.243902  0.048780     48.000000
 -0.341463  0.243902  0.048780     48.000000
 -0.317073  0.243902  0.048780     48.000000
 -0.292683  0.243902  0.048780     48.000000
 -0.268293  0.243902  0.048780     48.000000
 -0.243902  0.243902  0.048780     48.000000
 -0.219512  0.243902  0.048780     48.000000
 -0.195122  0.243902  0.048780     24.000000
  0.317073  0.268293  0.048780     24.000000
  0.341463  0.268293  0.048780     48.000000
  0.365854  0.268293  0.048780     48.000000
  0.390244  0.268293  0.048780     48.000000
  0.414634  0.268293  0.048780     48.000000
  0.439024  0.268293  0.048780     48.000000
  0.463415  0.268293  0.048780     48.000000
  0.487805  0.268293  0.048780     48.000000
 -0.487805  0.268293  0.048780     48.000000
 -0.463415  0.268293  0.048780     48.000000
 -0.439024  0.268293  0.048780     48.000000
 -0.414634  0.268293  0.048780     48.000000
 -0.390244  0.268293  0.048780     48.000000
 -0.365854  0.268293  0.048780     48.000000
 -0.341463  0.268293  0.048780     48.000000
 -0.317073  0.268293  0.048780     48.000000
 -0.292683  0.268293  0.048780     48.000000
 -0.268293  0.268293  0.048780     48.000000
 -0.243902  0.268293  0.048780     48.000000
 -0.219512  0.268293  0.048780     24.000000
  0.341463  0.292683  0.048780     24.000000
  0.365854  0.292683  0.048780     48.000000
  0.390244  0.292683  0.048780     48.000000
  0.414634  0.292683  0.048780     48.000000
  0.439024  0.292683  0.048780     48.000000
  0.463415  0.292683  0.048780     48.000000
  0.487805  0.292683  0.048780     48.000000
 -0.487805  0.292683  0.048780     48.000000
 -0.463415  0.292683  0.048780     48.000000
 -0.439024  0.292683  0.048780     48.000000
 -0.414634  0.292683  0.048780     48.000000
 -0.390244  0.292683  0.048780     48.000000
 -0.365854  0.292683  0.048780     48.000000
 -0.341463  0.292683  0.048780     48.000000
 -0.317073  0.292683  0.048780     48.000000
 -0.292683  0.292683  0.048780     48.000000
 -0.268293  0.292683  0.048780     48.000000
 -0.243902  0.292683  0.048780     24.000000
  0.365854  0.317073  0.048780     24.000000
  0.390244  0.317073  0.048780     48.000000
  0.414634  0.317073  0.048780     48.000000
  0.439024  0.317073  0.048780     48.000000
  0.463415  0.317073  0.048780     48.000000
  0.487805  0.317073  0.048780     48.000000
 -0.487805  0.317073  0.048780     48.000000
 -0.463415  0.317073  0.048780     48.000000
 -0.439024  0.317073  0.048780     48.000000
 -0.414634  0.317073  0.048780     48.000000
 -0.390244  0.317073  0.048780     48.000000
 -0.365854  0.317073  0.048780     48.000000
 -0.341463  0.317073  0.048780     48.000000
 -0.317073  0.317073  0.048780     48.000000
 -0.292683  0.317073  0.048780     48.000000
 -0.268293  0.317073  0.048780     24.000000
  0.390244  0.341463  0.048780     24.000000
  0.414634  0.341463  0.048780     48.000000
  0.439024  0.341463  0.048780     48.000000
  0.463415  0.341463  0.048780     48.000000
  0.487805  0.341463  0.048780     48.000000
 -0.487805  0.341463  0.048780     48.000000
 -0.463415  0.341463  0.048780     48.000000
 -0.439024  0.341463  0.048780     48.000000
 -0.414634  0.341463  0.048780     48.000000
 -0.390244  0.341463  0.048780     48.000000
 -0.365854  0.341463  0.048780     48.000000
 -0.341463  0.341463  0.048780     48.000000
 -0.317073  0.341463  0.048780     48.000000
 -0.292683  0.341463  0.048780     24.000000
  0.414634  0.365854  0.048780     24.000000
  0.439024  0.365854  0.048780     48.000000
  0.463415  0.365854  0.048780     48.000000
  0.487805  0.365854  0.048780     48.000000
 -0.487805  0.365854  0.048780     48.000000
 -0.463415  0.365854  0.048780     48.000000
 -0.439024  0.365854  0.048780     48.000000
 -0.414634  0.365854  0.048780     48.000000
 -0.390244  0.365854  0.048780     48.000000
 -0.365854  0.365854  0.048780     48.000000
 -0.341463  0.365854  0.048780     48.000000
 -0.317073  0.365854  0.048780     24.000000
  0.439024  0.390244  0.048780     24.000000
  0.463415  0.390244  0.048780     48.000000
  0.487805  0.390244  0.048780     48.000000
[...]
 total augmentation occupancy for first ion, spin component:           1
  2.000   0.000   0.000   0.000   0.000   0.000   0.000   0.000   0.000   0.000   0.000   0.000   0.000   0.000   0.000   0.000
  0.000   2.000   0.000   0.000   0.000   0.000   0.000   0.000   0.000   0.000   0.000   0.000   0.000   0.000   0.000   0.000
  0.000   0.000   2.000   0.000   0.000   0.000   0.000   0.000   0.000   0.000   0.000   0.000   0.000   0.000   0.000   0.000
  0.000   0.000   0.000   2.000   0.000   0.000   0.000   0.000   0.000   0.000   0.000   0.000   0.000   0.000   0.000   0.000
  0.000   0.000   0.000   0.000   2.000   0.000   0.000   0.000   0.000   0.000   0.000   0.000   0.000   0.000   0.000   0.000
  0.000   0.000   0.000   0.000   0.000   0.000   0.000   0.000   0.000   0.000   0.000   0.000   0.000   0.000   0.000   0.000
  0.000   0.000   0.000   0.000   0.000   0.000   0.000   0.000   0.000   0.000   0.000   0.000   0.000   0.000   0.000   0.000
  0.000   0.000   0.000   0.000   0.000   0.000   0.000   0.000   0.000   0.000   0.000   0.000   0.000   0.000   0.000   0.000
  0.000   0.000   0.000   0.000   0.000   0.000   0.000   0.000   0.000   0.000   0.000   0.000   0.000   0.000   0.000   0.000
  0.000   0.000   0.000   0.000   0.000   0.000   0.000   0.000   0.000   0.000   0.000   0.000   0.000   0.000   0.000   0.000
  0.000   0.000   0.000   0.000   0.000   0.000   0.000   0.000   0.000   0.000   2.000   0.000   0.000   0.000   0.000   0.000
  0.000   0.000   0.000   0.000   0.000   0.000   0.000   0.000   0.000   0.000   0.000   0.000   0.000   0.000   0.000   0.000
  0.000   0.000   0.000   0.000   0.000   0.000   0.000   0.000   0.000   0.000   0.000   0.000   0.667   0.000   0.000   0.000
  0.000   0.000   0.000   0.000   0.000   0.000   0.000   0.000   0.000   0.000   0.000   0.000   0.000   0.667   0.000   0.000
  0.000   0.000   0.000   0.000   0.000   0.000   0.000   0.000   0.000   0.000   0.000   0.000   0.000   0.000   0.667   0.000
  0.000   0.000   0.000   0.000   0.000   0.000   0.000   0.000   0.000   0.000   0.000   0.000   0.000   0.000   0.000   0.000
  0.000   0.000   0.000   0.000   0.000   0.000   0.000   0.000   0.000   0.000   0.000   0.000   0.000   0.000   0.000   0.000
  0.000   0.000   0.000   0.000   0.000   0.000   0.000   0.000   0.000   0.000   0.000   0.000   0.000   0.000   0.000   0.000
 total augmentation occupancy for first ion, spin component:           2
  0.000   0.000   0.000   0.000   0.000   0.000   0.000   0.000   0.000   0.000   0.000   0.000   0.000   0.000   0.000   0.000
  0.000   0.000   0.000   0.000   0.000   0.000   0.000   0.000   0.000   0.000   0.000   0.000   0.000   0.000   0.000   0.000
  0.000   0.000   0.000   0.000   0.000   0.000   0.000   0.000   0.000   0.000   0.000   0.000   0.000   0.000   0.000   0.000
  0.000   0.000   0.000   0.000   0.000   0.000   0.000   0.000   0.000   0.000   0.000   0.000   0.000   0.000   0.000   0.000
  0.000   0.000   0.000   0.000   0.000   0.000   0.000   0.000   0.000   0.000   0.000   0.000   0.000   0.000   0.000   0.000
  0.000   0.000   0.000   0.000   0.000   0.000   0.000   0.000   0.000   0.000   0.000   0.000   0.000   0.000   0.000   0.000
  0.000   0.000   0.000   0.000   0.000   0.000   0.000   0.000   0.000   0.000   0.000   0.000   0.000   0.000   0.000   0.000
  0.000   0.000   0.000   0.000   0.000   0.000   0.000   0.000   0.000   0.000   0.000   0.000   0.000   0.000   0.000   0.000
  0.000   0.000   0.000   0.000   0.000   0.000   0.000   0.000   0.000   0.000   0.000   0.000   0.000   0.000   0.000   0.000
  0.000   0.000   0.000   0.000   0.000   0.000   0.000   0.000   0.000   0.000   0.000   0.000   0.000   0.000   0.000   0.000
  0.000   0.000   0.000   0.000   0.000   0.000   0.000   0.000   0.000   0.000   0.000   0.000   0.000   0.000   0.000   0.000
  0.000   0.000   0.000   0.000   0.000   0.000   0.000   0.000   0.000   0.000   0.000   0.000   0.000   0.000   0.000   0.000
  0.000   0.000   0.000   0.000   0.000   0.000   0.000   0.000   0.000   0.000   0.000   0.000   0.000   0.000   0.000   0.000
  0.000   0.000   0.000   0.000   0.000   0.000   0.000   0.000   0.000   0.000   0.000   0.000   0.000   0.000   0.000   0.000
  0.000   0.000   0.000   0.000   0.000   0.000   0.000   0.000   0.000   0.000   0.000   0.000   0.000   0.000   0.000   0.000
  0.000   0.000   0.000   0.000   0.000   0.000   0.000   0.000   0.000   0.000   0.000   0.000   0.000   0.000   0.000   0.000
  0.000   0.000   0.000   0.000   0.000   0.000   0.000   0.000   0.000   0.000   0.000   0.000   0.000   0.000   0.000   0.000
  0.000   0.000   0.000   0.000   0.000   0.000   0.000   0.000   0.000   0.000   0.000   0.000   0.000   0.000   0.000   0.000
 total augmentation occupancy for first ion, spin component:           3
  0.000   0.000   0.000   0.000   0.000   0.000   0.000   0.000   0.000   0.000   0.000   0.000   0.000   0.000   0.000   0.000
  0.000   0.000   0.000   0.000   0.000   0.000   0.000   0.000   0.000   0.000   0.000   0.000   0.000   0.000   0.000   0.000
  0.000   0.000   0.000   0.000   0.000   0.000   0.000   0.000   0.000   0.000   0.000   0.000   0.000   0.000   0.000   0.000
  0.000   0.000   0.000   0.000   0.000   0.000   0.000   0.000   0.000   0.000   0.000   0.000   0.000   0.000   0.000   0.000
  0.000   0.000   0.000   0.000   0.000   0.000   0.000   0.000   0.000   0.000   0.000   0.000   0.000   0.000   0.000   0.000
  0.000   0.000   0.000   0.000   0.000   0.000   0.000   0.000   0.000   0.000   0.000   0.000   0.000   0.000   0.000   0.000
  0.000   0.000   0.000   0.000   0.000   0.000   0.000   0.000   0.000   0.000   0.000   0.000   0.000   0.000   0.000   0.000
  0.000   0.000   0.000   0.000   0.000   0.000   0.000   0.000   0.000   0.000   0.000   0.000   0.000   0.000   0.000   0.000
  0.000   0.000   0.000   0.000   0.000   0.000   0.000   0.000   0.000   0.000   0.000   0.000   0.000   0.000   0.000   0.000
  0.000   0.000   0.000   0.000   0.000   0.000   0.000   0.000   0.000   0.000   0.000   0.000   0.000   0.000   0.000   0.000
  0.000   0.000   0.000   0.000   0.000   0.000   0.000   0.000   0.000   0.000   0.000   0.000   0.000   0.000   0.000   0.000
  0.000   0.000   0.000   0.000   0.000   0.000   0.000   0.000   0.000   0.000   0.000   0.000   0.000   0.000   0.000   0.000
  0.000   0.000   0.000   0.000   0.000   0.000   0.000   0.000   0.000   0.000   0.000   0.000   0.000   0.000   0.000   0.000
  0.000   0.000   0.000   0.000   0.000   0.000   0.000   0.000   0.000   0.000   0.000   0.000   0.000   0.000   0.000   0.000
  0.000   0.000   0.000   0.000   0.000   0.000   0.000   0.000   0.000   0.000   0.000   0.000   0.000   0.000   0.000   0.000
  0.000   0.000   0.000   0.000   0.000   0.000   0.000   0.000   0.000   0.000   0.000   0.000   0.000   0.000   0.000   0.000
  0.000   0.000   0.000   0.000   0.000   0.000   0.000   0.000   0.000   0.000   0.000   0.000   0.000   0.000   0.000   0.000
  0.000   0.000   0.000   0.000   0.000   0.000   0.000   0.000   0.000   0.000   0.000   0.000   0.000   0.000   0.000   0.000
 total augmentation occupancy for first ion, spin component:           4
  0.000   0.000   0.000   0.000   0.000   0.000   0.000   0.000   0.000   0.000   0.000   0.000   0.000   0.000   0.000   0.000
  0.000   0.000   0.000   0.000   0.000   0.000   0.000   0.000   0.000   0.000   0.000   0.000   0.000   0.000   0.000   0.000
  0.000   0.000   0.000   0.000   0.000   0.000   0.000   0.000   0.000   0.000   0.000   0.000   0.000   0.000   0.000   0.000
  0.000   0.000   0.000   0.000   0.000   0.000   0.000   0.000   0.000   0.000   0.000   0.000   0.000   0.000   0.000   0.000
  0.000   0.000   0.000   0.000   0.000   0.000   0.000   0.000   0.000   0.000   0.000   0.000   0.000   0.000   0.000   0.000
  0.000   0.000   0.000   0.000   0.000   0.000   0.000   0.000   0.000   0.000   0.000   0.000   0.000   0.000   0.000   0.000
  0.000   0.000   0.000   0.000   0.000   0.000   0.000   0.000   0.000   0.000   0.000   0.000   0.000   0.000   0.000   0.000
  0.000   0.000   0.000   0.000   0.000   0.000   0.000   0.000   0.000   0.000   0.000   0.000   0.000   0.000   0.000   0.000
  0.000   0.000   0.000   0.000   0.000   0.000   0.000   0.000   0.000   0.000   0.000   0.000   0.000   0.000   0.000   0.000
  0.000   0.000   0.000   0.000   0.000   0.000   0.000   0.000   0.000   0.000   0.000   0.000   0.000   0.000   0.000   0.000
  0.000   0.000   0.000   0.000   0.000   0.000   0.000   0.000   0.000   0.000   0.000   0.000   0.000   0.000   0.000   0.000
  0.000   0.000   0.000   0.000   0.000   0.000   0.000   0.000   0.000   0.000   0.000   0.000   0.000   0.000   0.000   0.000
  0.000   0.000   0.000   0.000   0.000   0.000   0.000   0.000   0.000   0.000   0.000   0.000   0.000   0.000   0.000   0.000
  0.000   0.000   0.000   0.000   0.000   0.000   0.000   0.000   0.000   0.000   0.000   0.000   0.000   0.000   0.000   0.000
  0.000   0.000   0.000   0.000   0.000   0.000   0.000   0.000   0.000   0.000   0.000   0.000   0.000   0.000   0.000   0.000
  0.000   0.000   0.000   0.000   0.000   0.000   0.000   0.000   0.000   0.000   0.000   0.000   0.000   0.000   0.000   0.000
  0.000   0.000   0.000   0.000   0.000   0.000   0.000   0.000   0.000   0.000   0.000   0.000   0.000   0.000   0.000   0.000
  0.000   0.000   0.000   0.000   0.000   0.000   0.000   0.000   0.000   0.000   0.000   0.000   0.000   0.000   0.000   0.000


------------------------ aborting loop because EDIFF is reached ----------------------------------------


 


 total charge     
 
# of ion     s       p       d       tot
----------------------------------------
  1        1.370   0.737   9.978  12.084
  2        1.382   1.967   0.030   3.379
------------------------------------------------
tot        2.752   2.703  10.007  15.463
 


 magnetization (x)
 
# of ion     s       p       d       tot
----------------------------------------
  1       -0.000  -0.000  -0.000  -0.000
  2       -0.000  -0.000  -0.000  -0.000
------------------------------------------------
tot       -0.000  -0.000  -0.000  -0.000
 


 magnetization (y)
 
# of ion     s       p       d       tot
----------------------------------------
  1        0.000   0.000  -0.000   0.000
  2        0.000   0.000   0.000   0.000
------------------------------------------------
tot        0.000   0.000  -0.000   0.000
 


 magnetization (z)
 
# of ion     s       p       d       tot
----------------------------------------
  1        0.000   0.000  -0.000   0.000
  2        0.000   0.000  -0.000   0.000
------------------------------------------------
tot        0.000   0.000  -0.000   0.000
 
    CHARGE:  cpu time    1.61: real time    1.61
    FORLOC:  cpu time    0.00: real time    0.00
    FORNL :  cpu time    1.60: real time    1.61
    STRESS:  cpu time    3.64: real time    3.67
    FORCOR:  cpu time    0.01: real time    0.01
    FORHAR:  cpu time    0.00: real time    0.00

  FORCE on cell =-STRESS in cart. coord.  units (eV):
  Direction    XX          YY          ZZ          XY          YZ          ZX
  --------------------------------------------------------------------------------------
  Alpha Z    26.74714    26.74714    26.74714
  Ewald    -473.59734  -473.59734  -473.59734     0.00000    -0.00000    -0.00000
  Hartree   208.10917   208.10917   208.10917     0.00000     0.00000     0.00000
  E(xc)     -94.21712   -94.21712   -94.21712     0.00002     0.00002     0.00002
  Local    -144.38409  -144.38409  -144.38409     0.00007     0.00007     0.00007
  n-local   181.64694   183.76529   181.64943     0.27430    -0.92701     0.69407
  augment   151.45357   151.45357   151.45357    -0.00002    -0.00002    -0.00002
  Kinetic   144.91754   148.05348   139.90635     4.64005    -2.98982     1.88394
  Fock        0.00000     0.00000     0.00000     0.00000     0.00000     0.00000
  -------------------------------------------------------------------------------------
  Total       0.75766     0.75766     0.75766     0.00000     0.00000    -0.00000
  in kB      19.25324    19.25324    19.25324     0.00000     0.00000    -0.00000
  external pressure =       19.25 kB  Pullay stress =        0.00 kB


 VOLUME and BASIS-vectors are now :
 -----------------------------------------------------------------------------
  energy-cutoff  :      301.35
  volume of cell :       63.05
      direct lattice vectors                 reciprocal lattice vectors
     0.000000000  3.159000071  3.159000071    -0.158277933  0.158277933  0.158277933
     3.159000071  0.000000000  3.159000071     0.158277933 -0.158277933  0.158277933
     3.159000071  3.159000071  0.000000000     0.158277933  0.158277933 -0.158277933

  length of vectors
     4.467500743  4.467500743  4.467500743     0.274145421  0.274145421  0.274145421


 FORCES acting on ions
    electron-ion (+dipol)            ewald-force                    non-local-force                 convergence-correction
 -----------------------------------------------------------------------------------------------
   -.652E-14 0.226E-14 -.314E-14   -.503E-14 0.219E-14 -.637E-15   -.662E-23 -.662E-23 0.662E-23   0.680E-13 0.556E-13 0.179E-14
   0.720E-13 0.628E-13 0.612E-13   0.432E-14 -.197E-14 0.273E-14   0.331E-23 0.662E-23 -.331E-23   -.236E-14 -.233E-13 -.221E-13
 -----------------------------------------------------------------------------------------------
   0.655E-13 0.650E-13 0.581E-13   -.713E-15 0.223E-15 0.209E-14   -.331E-23 0.000E+00 0.331E-23   0.656E-13 0.323E-13 -.203E-13
 
 
 POSITION                                       TOTAL-FORCE (eV/Angst)
 -----------------------------------------------------------------------------------
      0.00000      0.00000      0.00000        -0.000000      0.000000      0.000000
      3.15900      3.15900      3.15900         0.000000     -0.000000     -0.000000
 -----------------------------------------------------------------------------------
    total drift:                                0.000000      0.000000      0.000000


--------------------------------------------------------------------------------------------------------



  FREE ENERGIE OF THE ION-ELECTRON SYSTEM (eV)
  ---------------------------------------------------
  free  energy   TOTEN  =        -7.69860298 eV

  energy  without entropy=       -7.69860298  energy(sigma->0) =       -7.69860298
 


--------------------------------------------------------------------------------------------------------


    POTLOK:  cpu time    0.02: real time    0.03


--------------------------------------------------------------------------------------------------------


     LOOP+:  cpu time  351.22: real time  355.79
    4ORBIT:  cpu time    0.00: real time    0.00

 Spin-Orbit-Coupling matrix elements

 Ion:    1  E_soc:     -0.0971276
 l=   1
     0.0000000    -0.0100805    -0.0100805
    -0.0100805     0.0000000    -0.0100805
    -0.0100805    -0.0100805     0.0000000
 l=   2
     0.0000000    -0.0012101     0.0000000    -0.0012101    -0.0048973
    -0.0012101     0.0000000    -0.0036730    -0.0012101    -0.0012243
     0.0000000    -0.0036730     0.0000000    -0.0036730     0.0000000
    -0.0012101    -0.0012101    -0.0036730     0.0000000    -0.0012243
    -0.0048973    -0.0012243     0.0000000    -0.0012243     0.0000000
 l=   3
     0.0000000     0.0000000     0.0000000     0.0000000     0.0000000     0.0000000     0.0000000
     0.0000000     0.0000000     0.0000000     0.0000000     0.0000000     0.0000000     0.0000000
     0.0000000     0.0000000     0.0000000     0.0000000     0.0000000     0.0000000     0.0000000
     0.0000000     0.0000000     0.0000000     0.0000000     0.0000000     0.0000000     0.0000000
     0.0000000     0.0000000     0.0000000     0.0000000     0.0000000     0.0000000     0.0000000
     0.0000000     0.0000000     0.0000000     0.0000000     0.0000000     0.0000000     0.0000000
     0.0000000     0.0000000     0.0000000     0.0000000     0.0000000     0.0000000     0.0000000

 Ion:    2  E_soc:     -0.2081322
 l=   1
     0.0000000    -0.0346855    -0.0346855
    -0.0346855     0.0000000    -0.0346855
    -0.0346855    -0.0346855     0.0000000
 l=   2
     0.0000000    -0.0000109     0.0000000    -0.0000109     0.0000077
    -0.0000109     0.0000000     0.0000058    -0.0000109     0.0000019
     0.0000000     0.0000058     0.0000000     0.0000058     0.0000000
    -0.0000109    -0.0000109     0.0000058     0.0000000     0.0000019
     0.0000077     0.0000019     0.0000000     0.0000019     0.0000000
 l=   3
     0.0000000     0.0000000     0.0000000     0.0000000     0.0000000     0.0000000     0.0000000
     0.0000000     0.0000000     0.0000000     0.0000000     0.0000000     0.0000000     0.0000000
     0.0000000     0.0000000     0.0000000     0.0000000     0.0000000     0.0000000     0.0000000
     0.0000000     0.0000000     0.0000000     0.0000000     0.0000000     0.0000000     0.0000000
     0.0000000     0.0000000     0.0000000     0.0000000     0.0000000     0.0000000     0.0000000
     0.0000000     0.0000000     0.0000000     0.0000000     0.0000000     0.0000000     0.0000000
     0.0000000     0.0000000     0.0000000     0.0000000     0.0000000     0.0000000     0.0000000
 


 total charge     
 
# of ion     s       p       d       tot
----------------------------------------
  1        1.370   0.737   9.978  12.084
  2        1.382   1.967   0.030   3.379
------------------------------------------------
tot        2.752   2.703  10.007  15.463
 


 magnetization (x)
 
# of ion     s       p       d       tot
----------------------------------------
  1       -0.000  -0.000  -0.000  -0.000
  2       -0.000  -0.000  -0.000  -0.000
------------------------------------------------
tot       -0.000  -0.000  -0.000  -0.000
 


 magnetization (y)
 
# of ion     s       p       d       tot
----------------------------------------
  1        0.000   0.000  -0.000   0.000
  2        0.000   0.000   0.000   0.000
------------------------------------------------
tot        0.000   0.000  -0.000   0.000
 


 magnetization (z)
 
# of ion     s       p       d       tot
----------------------------------------
  1        0.000   0.000  -0.000   0.000
  2        0.000   0.000  -0.000   0.000
------------------------------------------------
tot        0.000   0.000  -0.000   0.000
 
 BZINTS: Fermi energy:  6.751189; 20.000000 electrons
         Band energy:-135.557593;  BLOECHL correction:  0.000000
 BZINTS: Fermi energy:  6.751189; 20.000000 electrons
         Band energy:-135.557593;  BLOECHL correction:  0.000000
 BZINTS: Fermi energy:  6.751189; 20.000000 electrons
         Band energy:-135.557593;  BLOECHL correction:  0.000000
 BZINTS: Fermi energy:  6.751189; 20.000000 electrons
         Band energy:-135.557593;  BLOECHL correction:  0.000000

 total amount of memory used by VASP on root node   159320. kBytes
========================================================================

   base      :      30000. kBytes
   nonl-proj :      67330. kBytes
   fftplans  :        360. kBytes
   grid      :       1269. kBytes
   one-center:         62. kBytes
   wavefun   :      60299. kBytes
 
  
  
 General timing and accounting informations for this job:
 ========================================================
  
                  Total CPU time used (sec):      414.979
                            User time (sec):      373.293
                          System time (sec):       41.686
                         Elapsed time (sec):      422.737
  
                   Maximum memory used (kb):      294360.
                   Average memory used (kb):           0.
  
                          Minor page faults:     10334592
                          Major page faults:          100
                 Voluntary context switches:         2526
