       N       E                     dE             d eps       ncg     rms          rms(c)
DAV:   1     0.324358286347E+02    0.32436E+02   -0.82629E+03  3872   0.999E+02
DAV:   2    -0.704136595103E+01   -0.39477E+02   -0.38822E+02  5392   0.119E+02
DAV:   3    -0.779467734504E+01   -0.75331E+00   -0.75274E+00  4576   0.214E+01
DAV:   4    -0.780250495298E+01   -0.78276E-02   -0.78276E-02  6208   0.214E+00
DAV:   5    -0.780255192658E+01   -0.46974E-04   -0.46974E-04  4736   0.108E-01
DAV:   6    -0.780255253103E+01   -0.60444E-06   -0.60364E-06  5808   0.121E-02
   1 F= -.78025525E+01 E0= -.77981710E+01  d E =-.876304E-02
