 vasp.5.3.5 31Mar14 (build Apr 11 2017 15:45:08) complex                         
 executed on           sw5f90.old date 2018.07.20  09:27:21
 running on   20 total cores
 distrk:  each k-point on   20 cores,    1 groups
 distr:  one band on NCORES_PER_BAND=   5 cores,    4 groups


--------------------------------------------------------------------------------------------------------


 INCAR:
 POTCAR:    PAW_PBE Sn_d 06Sep2000                
 POTCAR:    PAW_PBE Te 08Apr2002                  
 POTCAR:    PAW_PBE Sn_d 06Sep2000                
   VRHFIN =Sn: s2p2                                                             
   LEXCH  = PE                                                                  
   EATOM  =  1893.1092 eV,  139.1396 Ry                                         
                                                                                
   TITEL  = PAW_PBE Sn_d 06Sep2000                                              
   LULTRA =        F    use ultrasoft PP ?                                      
   IUNSCR =        1    unscreen: 0-lin 1-nonlin 2-no                           
   RPACOR =    2.300    partial core radius                                     
   POMASS =  118.710; ZVAL   =   14.000    mass and valenz                      
   RCORE  =    2.500    outmost cutoff radius                                   
   RWIGS  =    2.960; RWIGS  =    1.566    wigner-seitz radius (au A)           
   ENMAX  =  241.083; ENMIN  =  180.812 eV                                      
   ICORE  =        3    local potential                                         
   LCOR   =        T    correct aug charges                                     
   LPAW   =        T    paw PP                                                  
   EAUG   =  439.825                                                            
   DEXC   =    0.000                                                            
   RMAX   =    2.560    core radius for proj-oper                               
   RAUG   =    1.300    factor for augmentation sphere                          
   RDEP   =    2.659    radius for radial grids                                 
   RDEPT  =    2.046    core radius for aug-charge                              
                                                                                
   Atomic configuration                                                         
   12 entries                                                                   
     n  l   j            E        occ.                                          
     1  0  0.50    -29007.2859   2.0000                                         
     2  0  0.50     -4378.8056   2.0000                                         
     2  1  1.50     -3930.4293   6.0000                                         
     3  0  0.50      -845.0264   2.0000                                         
     3  1  1.50      -698.5725   6.0000                                         
     3  2  2.50      -473.2839  10.0000                                         
     4  0  0.50      -133.9036   2.0000                                         
     4  1  1.50       -89.6752   6.0000                                         
     4  2  2.50       -25.8375  10.0000                                         
     5  0  0.50       -10.5484   2.0000                                         
     5  1  0.50        -3.6940   2.0000                                         
     4  3  2.50        -2.7416   0.0000                                         
   Description                                                                  
     l       E           TYP  RCUT    TYP  RCUT                                 
     2    -25.8374624     23  2.500                                             
     2     -5.4423304     23  2.500                                             
     0    -10.5483727     23  2.500                                             
     0     13.6058260     23  2.500                                             
     1     -3.6939829     23  2.500                                             
     1      1.9821976     23  2.500                                             
     3     -1.3605826      7  2.500                                             
  local pseudopotential read in
  partial core-charges read in
  partial kinetic energy density read in
  atomic valenz-charges read in
  non local Contribution for L= 2  read in
    real space projection operators read in
  non local Contribution for L= 2  read in
    real space projection operators read in
  non local Contribution for L= 0  read in
    real space projection operators read in
  non local Contribution for L= 0  read in
    real space projection operators read in
  non local Contribution for L= 1  read in
    real space projection operators read in
  non local Contribution for L= 1  read in
    real space projection operators read in
    PAW grid and wavefunctions read in
 
   number of l-projection  operators is LMAX  = 6
   number of lm-projection operators is LMMAX = 18
 
 POTCAR:    PAW_PBE Te 08Apr2002                  
   VRHFIN =Te: s2p4                                                             
   LEXCH  = PE                                                                  
   EATOM  =   223.2721 eV,   16.4100 Ry                                         
                                                                                
   TITEL  = PAW_PBE Te 08Apr2002                                                
   LULTRA =        F    use ultrasoft PP ?                                      
   IUNSCR =        1    unscreen: 0-lin 1-nonlin 2-no                           
   RPACOR =    2.200    partial core radius                                     
   POMASS =  127.600; ZVAL   =    6.000    mass and valenz                      
   RCORE  =    2.300    outmost cutoff radius                                   
   RWIGS  =    2.900; RWIGS  =    1.535    wigner-seitz radius (au A)           
   ENMAX  =  174.982; ENMIN  =  131.236 eV                                      
   ICORE  =        3    local potential                                         
   LCOR   =        T    correct aug charges                                     
   LPAW   =        T    paw PP                                                  
   EAUG   =  368.792                                                            
   DEXC   =    0.000                                                            
   RMAX   =    2.345    core radius for proj-oper                               
   RAUG   =    1.300    factor for augmentation sphere                          
   RDEP   =    2.397    radius for radial grids                                 
   RDEPT  =    2.174    core radius for aug-charge                              
                                                                                
   Atomic configuration                                                         
   13 entries                                                                   
     n  l   j            E        occ.                                          
     1  0  0.50    -31621.2075   2.0000                                         
     2  0  0.50     -4848.7941   2.0000                                         
     2  1  1.50     -4352.1960   6.0000                                         
     3  0  0.50      -964.9612   2.0000                                         
     3  1  1.50      -803.6179   6.0000                                         
     3  2  2.50      -559.8710  10.0000                                         
     4  0  0.50      -164.3522   2.0000                                         
     4  1  1.50      -114.3756   6.0000                                         
     4  2  2.50       -41.6483  10.0000                                         
     5  0  0.50       -15.1072   2.0000                                         
     5  1  0.50        -5.9526   4.0000                                         
     5  2  1.50        -5.4423   0.0000                                         
     4  3  2.50        -5.4423   0.0000                                         
   Description                                                                  
     l       E           TYP  RCUT    TYP  RCUT                                 
     0    -15.1072389     23  2.300                                             
     0    -16.4678215     23  2.300                                             
     1     -5.9526306     23  2.300                                             
     1     -2.4873968     23  2.300                                             
     2     -5.4423304     23  2.300                                             
     3     -1.3605826     23  2.300                                             
  local pseudopotential read in
  partial core-charges read in
  partial kinetic energy density read in
  atomic valenz-charges read in
  non local Contribution for L= 0  read in
    real space projection operators read in
  non local Contribution for L= 0  read in
    real space projection operators read in
  non local Contribution for L= 1  read in
    real space projection operators read in
  non local Contribution for L= 1  read in
    real space projection operators read in
  non local Contribution for L= 2  read in
    real space projection operators read in
    PAW grid and wavefunctions read in
 
   number of l-projection  operators is LMAX  = 5
   number of lm-projection operators is LMMAX = 13
 
  PAW_PBE Sn_d 06Sep2000                :
 energy of atom  1       EATOM=-1893.1092
 kinetic energy error for atom=    0.0334 (will be added to EATOM!!)
  PAW_PBE Te 08Apr2002                  :
 energy of atom  2       EATOM= -223.2721
 kinetic energy error for atom=    0.0026 (will be added to EATOM!!)
 
 
 POSCAR: Sn Te                                   
  positions in direct lattice
  No initial velocities read in
 exchange correlation table for  LEXCH =        8
   RHO(1)=    0.500       N(1)  =     2000
   RHO(2)=  100.500       N(2)  =     4000
 


--------------------------------------------------------------------------------------------------------


 ion  position               nearest neighbor table
   1  0.000  0.000  0.000-   2 3.16   2 3.16   2 3.16   2 3.16   2 3.16   2 3.16
   2  0.500  0.500  0.500-   1 3.16   1 3.16   1 3.16   1 3.16   1 3.16   1 3.16
 
  LATTYP: Found a face centered cubic cell.
 ALAT       =     6.3180001411
  
  Lattice vectors:
  
 A1 = (   0.0000000000,   3.1590000705,   3.1590000705)
 A2 = (   3.1590000705,   0.0000000000,   3.1590000705)
 A3 = (   3.1590000705,   3.1590000705,   0.0000000000)


Analysis of symmetry for initial positions (statically):
=====================================================================
 Subroutine PRICEL returns:
 Original cell was already a primitive cell.
 

 Routine SETGRP: Setting up the symmetry group for a 
 face centered cubic supercell.


 Subroutine GETGRP returns: Found 48 space group operations
 (whereof 48 operations were pure point group operations)
 out of a pool of 48 trial point group operations.


The static configuration has the point symmetry O_h .


Analysis of symmetry for dynamics (positions and initial velocities):
=====================================================================
 Subroutine PRICEL returns:
 Original cell was already a primitive cell.
 

 Routine SETGRP: Setting up the symmetry group for a 
 face centered cubic supercell.


 Subroutine GETGRP returns: Found 48 space group operations
 (whereof 48 operations were pure point group operations)
 out of a pool of 48 trial point group operations.


The dynamic configuration has the point symmetry O_h .
 
 
 KPOINTS: kpoints                                 
  interpolating k-points between supplied coordinates
  k-points in reciprocal lattice
Space group operators:
 irot       det(A)        alpha          n_x          n_y          n_z        tau_x        tau_y        tau_z
    1     1.000000     0.000000     1.000000     0.000000     0.000000     0.000000     0.000000     0.000000
    2    -1.000000     0.000000     1.000000     0.000000     0.000000     0.000000     0.000000     0.000000
    3     1.000000   120.000000    -0.577350    -0.577350    -0.577350     0.000000     0.000000     0.000000
    4    -1.000000   120.000000    -0.577350    -0.577350    -0.577350     0.000000     0.000000     0.000000
    5     1.000000   120.000000     0.577350     0.577350     0.577350     0.000000     0.000000     0.000000
    6    -1.000000   120.000000     0.577350     0.577350     0.577350     0.000000     0.000000     0.000000
    7     1.000000    90.000000     0.000000     0.000000    -1.000000     0.000000     0.000000     0.000000
    8    -1.000000    90.000000     0.000000     0.000000    -1.000000     0.000000     0.000000     0.000000
    9     1.000000   180.000000     0.000000     0.707107     0.707107     0.000000     0.000000     0.000000
   10    -1.000000   180.000000     0.000000     0.707107     0.707107     0.000000     0.000000     0.000000
   11     1.000000    90.000000     0.000000     1.000000     0.000000     0.000000     0.000000     0.000000
   12    -1.000000    90.000000     0.000000     1.000000     0.000000     0.000000     0.000000     0.000000
   13     1.000000   180.000000     0.000000     0.000000     1.000000     0.000000     0.000000     0.000000
   14    -1.000000   180.000000     0.000000     0.000000     1.000000     0.000000     0.000000     0.000000
   15     1.000000   120.000000    -0.577350     0.577350     0.577350     0.000000     0.000000     0.000000
   16    -1.000000   120.000000    -0.577350     0.577350     0.577350     0.000000     0.000000     0.000000
   17     1.000000   120.000000    -0.577350     0.577350    -0.577350     0.000000     0.000000     0.000000
   18    -1.000000   120.000000    -0.577350     0.577350    -0.577350     0.000000     0.000000     0.000000
   19     1.000000    90.000000     0.000000     0.000000     1.000000     0.000000     0.000000     0.000000
   20    -1.000000    90.000000     0.000000     0.000000     1.000000     0.000000     0.000000     0.000000
   21     1.000000    90.000000    -1.000000     0.000000     0.000000     0.000000     0.000000     0.000000
   22    -1.000000    90.000000    -1.000000     0.000000     0.000000     0.000000     0.000000     0.000000
   23     1.000000   180.000000     0.707107     0.000000     0.707107     0.000000     0.000000     0.000000
   24    -1.000000   180.000000     0.707107     0.000000     0.707107     0.000000     0.000000     0.000000
   25     1.000000   120.000000     0.577350    -0.577350     0.577350     0.000000     0.000000     0.000000
   26    -1.000000   120.000000     0.577350    -0.577350     0.577350     0.000000     0.000000     0.000000
   27     1.000000   120.000000    -0.577350    -0.577350     0.577350     0.000000     0.000000     0.000000
   28    -1.000000   120.000000    -0.577350    -0.577350     0.577350     0.000000     0.000000     0.000000
   29     1.000000   180.000000     1.000000     0.000000     0.000000     0.000000     0.000000     0.000000
   30    -1.000000   180.000000     1.000000     0.000000     0.000000     0.000000     0.000000     0.000000
   31     1.000000    90.000000     0.000000    -1.000000     0.000000     0.000000     0.000000     0.000000
   32    -1.000000    90.000000     0.000000    -1.000000     0.000000     0.000000     0.000000     0.000000
   33     1.000000   180.000000     0.707107     0.707107     0.000000     0.000000     0.000000     0.000000
   34    -1.000000   180.000000     0.707107     0.707107     0.000000     0.000000     0.000000     0.000000
   35     1.000000    90.000000     1.000000     0.000000     0.000000     0.000000     0.000000     0.000000
   36    -1.000000    90.000000     1.000000     0.000000     0.000000     0.000000     0.000000     0.000000
   37     1.000000   120.000000     0.577350    -0.577350    -0.577350     0.000000     0.000000     0.000000
   38    -1.000000   120.000000     0.577350    -0.577350    -0.577350     0.000000     0.000000     0.000000
   39     1.000000   180.000000     0.000000     1.000000     0.000000     0.000000     0.000000     0.000000
   40    -1.000000   180.000000     0.000000     1.000000     0.000000     0.000000     0.000000     0.000000
   41     1.000000   120.000000     0.577350     0.577350    -0.577350     0.000000     0.000000     0.000000
   42    -1.000000   120.000000     0.577350     0.577350    -0.577350     0.000000     0.000000     0.000000
   43     1.000000   180.000000     0.000000    -0.707107     0.707107     0.000000     0.000000     0.000000
   44    -1.000000   180.000000     0.000000    -0.707107     0.707107     0.000000     0.000000     0.000000
   45     1.000000   180.000000     0.707107    -0.707107     0.000000     0.000000     0.000000     0.000000
   46    -1.000000   180.000000     0.707107    -0.707107     0.000000     0.000000     0.000000     0.000000
   47     1.000000   180.000000     0.707107     0.000000    -0.707107     0.000000     0.000000     0.000000
   48    -1.000000   180.000000     0.707107     0.000000    -0.707107     0.000000     0.000000     0.000000


--------------------------------------------------------------------------------------------------------




 Dimension of arrays:
   k-points           NKPTS =    120   k-points in BZ     NKDIM =    120   number of bands    NBANDS=     16
   number of dos      NEDOS =    301   number of ions     NIONS =      2
   non local maximal  LDIM  =      6   non local SUM 2l+1 LMDIM =     18
   total plane-waves  NPLWV =  21952
   max r-space proj   IRMAX =      1   max aug-charges    IRDMAX=   7579
   dimension x,y,z NGX =    28 NGY =   28 NGZ =   28
   dimension x,y,z NGXF=    40 NGYF=   40 NGZF=   40
   support grid    NGXF=    40 NGYF=   40 NGZF=   40
   ions per type =               1   1
 NGX,Y,Z   is equivalent  to a cutoff of  10.42, 10.42, 10.42 a.u.
 NGXF,Y,Z  is equivalent  to a cutoff of  14.88, 14.88, 14.88 a.u.


 I would recommend the setting:
   dimension x,y,z NGX =    25 NGY =   25 NGZ =   25
 SYSTEM =  unknown system                          
 POSCAR =  Sn Te                                   

 Startparameter for this run:
   NWRITE =      2    write-flag & timer
   PREC   = high      normal or accurate (medium, high low for compatibility)
   ISTART =      0    job   : 0-new  1-cont  2-samecut
   ICHARG =     11    charge: 1-file 2-atom 10-const
   ISPIN  =      1    spin polarized calculation?
   LNONCOLLINEAR =      F non collinear calculations
   LSORBIT =      F    spin-orbit coupling
   INIWAV =      1    electr: 0-lowe 1-rand  2-diag
   LASPH  =      F    aspherical Exc in radial PAW
   METAGGA=      F    non-selfconsistent MetaGGA calc.

 Electronic Relaxation 1
   ENCUT  =  301.4 eV  22.15 Ry    4.71 a.u.   6.32  6.32  6.32*2*pi/ulx,y,z
   ENINI  =  301.4     initial cutoff
   ENAUG  =  439.8 eV  augmentation charge cutoff
   NELM   =    300;   NELMIN=  2; NELMDL= -5     # of ELM steps 
   EDIFF  = 0.1E-03   stopping-criterion for ELM
   LREAL  =      F    real-space projection
   NLSPLINE    = F    spline interpolate recip. space projectors
   LCOMPAT=      F    compatible to vasp.4.4
   GGA_COMPAT  = T    GGA compatible to vasp.4.4-vasp.4.6
   LMAXPAW     = -100 max onsite density
   LMAXMIX     =    4 max onsite mixed and CHGCAR
   VOSKOWN=      0    Vosko Wilk Nusair interpolation
   ROPT   =    0.00000   0.00000
 Ionic relaxation
   EDIFFG = 0.1E-02   stopping-criterion for IOM
   NSW    =      0    number of steps for IOM
   NBLOCK =      1;   KBLOCK =      1    inner block; outer block 
   IBRION =     -1    ionic relax: 0-MD 1-quasi-New 2-CG
   NFREE  =      0    steps in history (QN), initial steepest desc. (CG)
   ISIF   =      2    stress and relaxation
   IWAVPR =     10    prediction:  0-non 1-charg 2-wave 3-comb
   ISYM   =      2    0-nonsym 1-usesym 2-fastsym
   LCORR  =      T    Harris-Foulkes like correction to forces

   POTIM  = 0.5000    time-step for ionic-motion
   TEIN   =    0.0    initial temperature
   TEBEG  =    0.0;   TEEND  =   0.0 temperature during run
   SMASS  =  -3.00    Nose mass-parameter (am)
   estimated Nose-frequenzy (Omega)   =  0.10E-29 period in steps =****** mass=  -0.456E-27a.u.
   SCALEE = 1.0000    scale energy and forces
   NPACO  =    256;   APACO  = 16.0  distance and # of slots for P.C.
   PSTRESS=    0.0 pullay stress

  Mass of Ions in am
   POMASS = 118.71127.60
  Ionic Valenz
   ZVAL   =  14.00  6.00
  Atomic Wigner-Seitz radii
   RWIGS  =  -1.00 -1.00
  virtual crystal weights 
   VCA    =   1.00  1.00
   NELECT =      20.0000    total number of electrons
   NUPDOWN=      -1.0000    fix difference up-down

 DOS related values:
   EMIN   =  10.00;   EMAX   =-10.00  energy-range for DOS
   EFERMI =   0.00
   ISMEAR =     0;   SIGMA  =   0.20  broadening in eV -4-tet -1-fermi 0-gaus

 Electronic relaxation 2 (details)
   IALGO  =     38    algorithm
   LDIAG  =      T    sub-space diagonalisation (order eigenvalues)
   LSUBROT=      F    optimize rotation matrix (better conditioning)
   TURBO    =      0    0=normal 1=particle mesh
   IRESTART =      0    0=no restart 2=restart with 2 vectors
   NREBOOT  =      0    no. of reboots
   NMIN     =      0    reboot dimension
   EREF     =   0.00    reference energy to select bands
   IMIX   =      4    mixing-type and parameters
     AMIX     =   0.40;   BMIX     =  1.00
     AMIX_MAG =   1.60;   BMIX_MAG =  1.00
     AMIN     =   0.10
     WC   =   100.;   INIMIX=   1;  MIXPRE=   1;  MAXMIX= -45

 Intra band minimization:
   WEIMIN = 0.0000     energy-eigenvalue tresh-hold
   EBREAK =  0.16E-05  absolut break condition
   DEPER  =   0.30     relativ break condition  

   TIME   =   0.40     timestep for ELM

  volume/ion in A,a.u.               =      31.52       212.74
  Fermi-wavevector in a.u.,A,eV,Ry     =   1.116499  2.109878 16.960630  1.246571
  Thomas-Fermi vector in A             =   2.253114
 
 Write flags
   LWAVE  =      F    write WAVECAR
   LCHARG =      T    write CHGCAR
   LVTOT  =      F    write LOCPOT, total local potential
   LVHAR  =      F    write LOCPOT, Hartree potential only
   LELF   =      F    write electronic localiz. function (ELF)
   LORBIT =     11    0 simple, 1 ext, 2 COOP (PROOUT)


 Dipole corrections
   LMONO  =      F    monopole corrections only (constant potential shift)
   LDIPOL =      F    correct potential (dipole corrections)
   IDIPOL =      0    1-x, 2-y, 3-z, 4-all directions 
   EPSILON=  1.0000000 bulk dielectric constant

 Exchange correlation treatment:
   GGA     =    --    GGA type
   LEXCH   =     8    internal setting for exchange type
   VOSKOWN=      0    Vosko Wilk Nusair interpolation
   LHFCALC =     F    Hartree Fock is set to
   LHFONE  =     F    Hartree Fock one center treatment
   AEXX    =    0.0000 exact exchange contribution

 Linear response parameters
   LEPSILON=     F    determine dielectric tensor
   LRPA    =     F    only Hartree local field effects (RPA)
   LNABLA  =     F    use nabla operator in PAW spheres
   LVEL    =     F    velocity operator in full k-point grid
   LINTERFAST=   F  fast interpolation
   KINTER  =     0    interpolate to denser k-point grid
   CSHIFT  =0.1000    complex shift for real part using Kramers Kronig
   OMEGAMAX=  -1.0    maximum frequency
   DEG_THRESHOLD= 0.2000000E-02 threshold for treating states as degnerate
   RTIME   =    0.100 relaxation time in fs

 Orbital magnetization related:
   ORBITALMAG=     F  switch on orbital magnetization
   LCHIMAG   =     F  perturbation theory with respect to B field
   DQ        =  0.001000  dq finite difference perturbation B field



--------------------------------------------------------------------------------------------------------


 Static calculation
 charge density and potential remain constant during run
 non-spin polarized calculation
 Variant of blocked Davidson
 Davidson routine will perform the subspace rotation
 perform sub-space diagonalisation
    after iterative eigenvector-optimisation
 no mixing
 using additional bands  6
 reciprocal scheme for non local part
 use partial core corrections
 calculate Harris-corrections to forces   (improved forces if not selfconsistent)
 use gradient corrections 
 WARNING: stress and forces are not correct
  (second derivative of E(xc) not defined)
 use of overlap-Matrix (Vanderbilt PP)
 Gauss-broadening in eV      SIGMA  =   0.20


--------------------------------------------------------------------------------------------------------


  energy-cutoff  :      301.35
  volume of cell :       63.05
      direct lattice vectors                 reciprocal lattice vectors
     0.000000000  3.159000071  3.159000071    -0.158277933  0.158277933  0.158277933
     3.159000071  0.000000000  3.159000071     0.158277933 -0.158277933  0.158277933
     3.159000071  3.159000071  0.000000000     0.158277933  0.158277933 -0.158277933

  length of vectors
     4.467500743  4.467500743  4.467500743     0.274145421  0.274145421  0.274145421


 
 k-points in units of 2pi/SCALE and weight: kpoints                                 
   0.00000000  0.00000000  0.00000000       0.008
   0.00000000  0.00833042  0.00000000       0.008
   0.00000000  0.01666084  0.00000000       0.008
   0.00000000  0.02499125  0.00000000       0.008
   0.00000000  0.03332167  0.00000000       0.008
   0.00000000  0.04165209  0.00000000       0.008
   0.00000000  0.04998251  0.00000000       0.008
   0.00000000  0.05831292  0.00000000       0.008
   0.00000000  0.06664334  0.00000000       0.008
   0.00000000  0.07497376  0.00000000       0.008
   0.00000000  0.08330418  0.00000000       0.008
   0.00000000  0.09163459  0.00000000       0.008
   0.00000000  0.09996501  0.00000000       0.008
   0.00000000  0.10829543  0.00000000       0.008
   0.00000000  0.11662585  0.00000000       0.008
   0.00000000  0.12495626  0.00000000       0.008
   0.00000000  0.13328668  0.00000000       0.008
   0.00000000  0.14161710  0.00000000       0.008
   0.00000000  0.14994752  0.00000000       0.008
   0.00000000  0.15827793  0.00000000       0.008
   0.00000000  0.15827793  0.00000000       0.008
   0.00208260  0.15827793  0.00208260       0.008
   0.00416521  0.15827793  0.00416521       0.008
   0.00624781  0.15827793  0.00624781       0.008
   0.00833042  0.15827793  0.00833042       0.008
   0.01041302  0.15827793  0.01041302       0.008
   0.01249563  0.15827793  0.01249563       0.008
   0.01457823  0.15827793  0.01457823       0.008
   0.01666084  0.15827793  0.01666084       0.008
   0.01874344  0.15827793  0.01874344       0.008
   0.02082604  0.15827793  0.02082604       0.008
   0.02290865  0.15827793  0.02290865       0.008
   0.02499125  0.15827793  0.02499125       0.008
   0.02707386  0.15827793  0.02707386       0.008
   0.02915646  0.15827793  0.02915646       0.008
   0.03123907  0.15827793  0.03123907       0.008
   0.03332167  0.15827793  0.03332167       0.008
   0.03540427  0.15827793  0.03540427       0.008
   0.03748688  0.15827793  0.03748688       0.008
   0.03956948  0.15827793  0.03956948       0.008
   0.11870845  0.11870845  0.00000000       0.008
   0.11246064  0.11246064  0.00000000       0.008
   0.10621282  0.10621282  0.00000000       0.008
   0.09996501  0.09996501  0.00000000       0.008
   0.09371720  0.09371720  0.00000000       0.008
   0.08746938  0.08746938  0.00000000       0.008
   0.08122157  0.08122157  0.00000000       0.008
   0.07497376  0.07497376  0.00000000       0.008
   0.06872594  0.06872594  0.00000000       0.008
   0.06247813  0.06247813  0.00000000       0.008
   0.05623032  0.05623032  0.00000000       0.008
   0.04998251  0.04998251  0.00000000       0.008
   0.04373469  0.04373469  0.00000000       0.008
   0.03748688  0.03748688  0.00000000       0.008
   0.03123907  0.03123907  0.00000000       0.008
   0.02499125  0.02499125  0.00000000       0.008
   0.01874344  0.01874344  0.00000000       0.008
   0.01249563  0.01249563  0.00000000       0.008
   0.00624781  0.00624781  0.00000000       0.008
   0.00000000  0.00000000  0.00000000       0.008
   0.00000000  0.00000000  0.00000000       0.008
   0.00416521  0.00416521  0.00416521       0.008
   0.00833042  0.00833042  0.00833042       0.008
   0.01249563  0.01249563  0.01249563       0.008
   0.01666084  0.01666084  0.01666084       0.008
   0.02082604  0.02082604  0.02082604       0.008
   0.02499125  0.02499125  0.02499125       0.008
   0.02915646  0.02915646  0.02915646       0.008
   0.03332167  0.03332167  0.03332167       0.008
   0.03748688  0.03748688  0.03748688       0.008
   0.04165209  0.04165209  0.04165209       0.008
   0.04581730  0.04581730  0.04581730       0.008
   0.04998251  0.04998251  0.04998251       0.008
   0.05414771  0.05414771  0.05414771       0.008
   0.05831292  0.05831292  0.05831292       0.008
   0.06247813  0.06247813  0.06247813       0.008
   0.06664334  0.06664334  0.06664334       0.008
   0.07080855  0.07080855  0.07080855       0.008
   0.07497376  0.07497376  0.07497376       0.008
   0.07913897  0.07913897  0.07913897       0.008
   0.07913897  0.07913897  0.07913897       0.008
   0.07913897  0.08330418  0.07497376       0.008
   0.07913897  0.08746938  0.07080855       0.008
   0.07913897  0.09163459  0.06664334       0.008
   0.07913897  0.09579980  0.06247813       0.008
   0.07913897  0.09996501  0.05831292       0.008
   0.07913897  0.10413022  0.05414771       0.008
   0.07913897  0.10829543  0.04998251       0.008
   0.07913897  0.11246064  0.04581730       0.008
   0.07913897  0.11662585  0.04165209       0.008
   0.07913897  0.12079105  0.03748688       0.008
   0.07913897  0.12495626  0.03332167       0.008
   0.07913897  0.12912147  0.02915646       0.008
   0.07913897  0.13328668  0.02499125       0.008
   0.07913897  0.13745189  0.02082604       0.008
   0.07913897  0.14161710  0.01666084       0.008
   0.07913897  0.14578231  0.01249563       0.008
   0.07913897  0.14994752  0.00833042       0.008
   0.07913897  0.15411272  0.00416521       0.008
   0.07913897  0.15827793  0.00000000       0.008
   0.07913897  0.15827793  0.00000000       0.008
   0.07497376  0.15827793  0.00000000       0.008
   0.07080855  0.15827793  0.00000000       0.008
   0.06664334  0.15827793  0.00000000       0.008
   0.06247813  0.15827793  0.00000000       0.008
   0.05831292  0.15827793  0.00000000       0.008
   0.05414771  0.15827793  0.00000000       0.008
   0.04998251  0.15827793  0.00000000       0.008
   0.04581730  0.15827793  0.00000000       0.008
   0.04165209  0.15827793  0.00000000       0.008
   0.03748688  0.15827793  0.00000000       0.008
   0.03332167  0.15827793  0.00000000       0.008
   0.02915646  0.15827793  0.00000000       0.008
   0.02499125  0.15827793  0.00000000       0.008
   0.02082604  0.15827793  0.00000000       0.008
   0.01666084  0.15827793  0.00000000       0.008
   0.01249563  0.15827793  0.00000000       0.008
   0.00833042  0.15827793  0.00000000       0.008
   0.00416521  0.15827793  0.00000000       0.008
   0.00000000  0.15827793  0.00000000       0.008
 
 k-points in reciprocal lattice and weights: kpoints                                 
   0.00000000  0.00000000  0.00000000       0.008
   0.02631579  0.00000000  0.02631579       0.008
   0.05263158  0.00000000  0.05263158       0.008
   0.07894737  0.00000000  0.07894737       0.008
   0.10526316  0.00000000  0.10526316       0.008
   0.13157895  0.00000000  0.13157895       0.008
   0.15789474  0.00000000  0.15789474       0.008
   0.18421053  0.00000000  0.18421053       0.008
   0.21052632  0.00000000  0.21052632       0.008
   0.23684211  0.00000000  0.23684211       0.008
   0.26315789  0.00000000  0.26315789       0.008
   0.28947368  0.00000000  0.28947368       0.008
   0.31578947  0.00000000  0.31578947       0.008
   0.34210526  0.00000000  0.34210526       0.008
   0.36842105  0.00000000  0.36842105       0.008
   0.39473684  0.00000000  0.39473684       0.008
   0.42105263  0.00000000  0.42105263       0.008
   0.44736842  0.00000000  0.44736842       0.008
   0.47368421  0.00000000  0.47368421       0.008
   0.50000000  0.00000000  0.50000000       0.008
   0.50000000  0.00000000  0.50000000       0.008
   0.50657895  0.01315789  0.50657895       0.008
   0.51315789  0.02631579  0.51315789       0.008
   0.51973684  0.03947368  0.51973684       0.008
   0.52631579  0.05263158  0.52631579       0.008
   0.53289474  0.06578947  0.53289474       0.008
   0.53947368  0.07894737  0.53947368       0.008
   0.54605263  0.09210526  0.54605263       0.008
   0.55263158  0.10526316  0.55263158       0.008
   0.55921053  0.11842105  0.55921053       0.008
   0.56578947  0.13157895  0.56578947       0.008
   0.57236842  0.14473684  0.57236842       0.008
   0.57894737  0.15789474  0.57894737       0.008
   0.58552632  0.17105263  0.58552632       0.008
   0.59210526  0.18421053  0.59210526       0.008
   0.59868421  0.19736842  0.59868421       0.008
   0.60526316  0.21052632  0.60526316       0.008
   0.61184211  0.22368421  0.61184211       0.008
   0.61842105  0.23684211  0.61842105       0.008
   0.62500000  0.25000000  0.62500000       0.008
   0.37500000  0.37500000  0.75000000       0.008
   0.35526316  0.35526316  0.71052632       0.008
   0.33552632  0.33552632  0.67105263       0.008
   0.31578947  0.31578947  0.63157895       0.008
   0.29605263  0.29605263  0.59210526       0.008
   0.27631579  0.27631579  0.55263158       0.008
   0.25657895  0.25657895  0.51315789       0.008
   0.23684211  0.23684211  0.47368421       0.008
   0.21710526  0.21710526  0.43421053       0.008
   0.19736842  0.19736842  0.39473684       0.008
   0.17763158  0.17763158  0.35526316       0.008
   0.15789474  0.15789474  0.31578947       0.008
   0.13815789  0.13815789  0.27631579       0.008
   0.11842105  0.11842105  0.23684211       0.008
   0.09868421  0.09868421  0.19736842       0.008
   0.07894737  0.07894737  0.15789474       0.008
   0.05921053  0.05921053  0.11842105       0.008
   0.03947368  0.03947368  0.07894737       0.008
   0.01973684  0.01973684  0.03947368       0.008
   0.00000000  0.00000000  0.00000000       0.008
   0.00000000  0.00000000  0.00000000       0.008
   0.02631579  0.02631579  0.02631579       0.008
   0.05263158  0.05263158  0.05263158       0.008
   0.07894737  0.07894737  0.07894737       0.008
   0.10526316  0.10526316  0.10526316       0.008
   0.13157895  0.13157895  0.13157895       0.008
   0.15789474  0.15789474  0.15789474       0.008
   0.18421053  0.18421053  0.18421053       0.008
   0.21052632  0.21052632  0.21052632       0.008
   0.23684211  0.23684211  0.23684211       0.008
   0.26315789  0.26315789  0.26315789       0.008
   0.28947368  0.28947368  0.28947368       0.008
   0.31578947  0.31578947  0.31578947       0.008
   0.34210526  0.34210526  0.34210526       0.008
   0.36842105  0.36842105  0.36842105       0.008
   0.39473684  0.39473684  0.39473684       0.008
   0.42105263  0.42105263  0.42105263       0.008
   0.44736842  0.44736842  0.44736842       0.008
   0.47368421  0.47368421  0.47368421       0.008
   0.50000000  0.50000000  0.50000000       0.008
   0.50000000  0.50000000  0.50000000       0.008
   0.50000000  0.48684211  0.51315789       0.008
   0.50000000  0.47368421  0.52631579       0.008
   0.50000000  0.46052632  0.53947368       0.008
   0.50000000  0.44736842  0.55263158       0.008
   0.50000000  0.43421053  0.56578947       0.008
   0.50000000  0.42105263  0.57894737       0.008
   0.50000000  0.40789474  0.59210526       0.008
   0.50000000  0.39473684  0.60526316       0.008
   0.50000000  0.38157895  0.61842105       0.008
   0.50000000  0.36842105  0.63157895       0.008
   0.50000000  0.35526316  0.64473684       0.008
   0.50000000  0.34210526  0.65789474       0.008
   0.50000000  0.32894737  0.67105263       0.008
   0.50000000  0.31578947  0.68421053       0.008
   0.50000000  0.30263158  0.69736842       0.008
   0.50000000  0.28947368  0.71052632       0.008
   0.50000000  0.27631579  0.72368421       0.008
   0.50000000  0.26315789  0.73684211       0.008
   0.50000000  0.25000000  0.75000000       0.008
   0.50000000  0.25000000  0.75000000       0.008
   0.50000000  0.23684211  0.73684211       0.008
   0.50000000  0.22368421  0.72368421       0.008
   0.50000000  0.21052632  0.71052632       0.008
   0.50000000  0.19736842  0.69736842       0.008
   0.50000000  0.18421053  0.68421053       0.008
   0.50000000  0.17105263  0.67105263       0.008
   0.50000000  0.15789474  0.65789474       0.008
   0.50000000  0.14473684  0.64473684       0.008
   0.50000000  0.13157895  0.63157895       0.008
   0.50000000  0.11842105  0.61842105       0.008
   0.50000000  0.10526316  0.60526316       0.008
   0.50000000  0.09210526  0.59210526       0.008
   0.50000000  0.07894737  0.57894737       0.008
   0.50000000  0.06578947  0.56578947       0.008
   0.50000000  0.05263158  0.55263158       0.008
   0.50000000  0.03947368  0.53947368       0.008
   0.50000000  0.02631579  0.52631579       0.008
   0.50000000  0.01315789  0.51315789       0.008
   0.50000000  0.00000000  0.50000000       0.008
 
 position of ions in fractional coordinates (direct lattice) 
   0.00000000  0.00000000  0.00000000
   0.50000000  0.50000000  0.50000000
 
 position of ions in cartesian coordinates  (Angst):
   0.00000000  0.00000000  0.00000000
   3.15900007  3.15900007  3.15900007
 


--------------------------------------------------------------------------------------------------------


 k-point  1 :   0.0000 0.0000 0.0000  plane waves:     725
 k-point  2 :   0.0263 0.0000 0.0263  plane waves:     733
 k-point  3 :   0.0526 0.0000 0.0526  plane waves:     733
 k-point  4 :   0.0789 0.0000 0.0789  plane waves:     733
 k-point  5 :   0.1053 0.0000 0.1053  plane waves:     737
 k-point  6 :   0.1316 0.0000 0.1316  plane waves:     753
 k-point  7 :   0.1579 0.0000 0.1579  plane waves:     761
 k-point  8 :   0.1842 0.0000 0.1842  plane waves:     745
 k-point  9 :   0.2105 0.0000 0.2105  plane waves:     745
 k-point 10 :   0.2368 0.0000 0.2368  plane waves:     745
 k-point 11 :   0.2632 0.0000 0.2632  plane waves:     729
 k-point 12 :   0.2895 0.0000 0.2895  plane waves:     745
 k-point 13 :   0.3158 0.0000 0.3158  plane waves:     741
 k-point 14 :   0.3421 0.0000 0.3421  plane waves:     749
 k-point 15 :   0.3684 0.0000 0.3684  plane waves:     753
 k-point 16 :   0.3947 0.0000 0.3947  plane waves:     753
 k-point 17 :   0.4211 0.0000 0.4211  plane waves:     749
 k-point 18 :   0.4474 0.0000 0.4474  plane waves:     745
 k-point 19 :   0.4737 0.0000 0.4737  plane waves:     740
 k-point 20 :   0.5000 0.0000 0.5000  plane waves:     740
 k-point 21 :   0.5000 0.0000 0.5000  plane waves:     740
 k-point 22 :   0.5066 0.0132 0.5066  plane waves:     740
 k-point 23 :   0.5132 0.0263 0.5132  plane waves:     740
 k-point 24 :   0.5197 0.0395 0.5197  plane waves:     740
 k-point 25 :   0.5263 0.0526 0.5263  plane waves:     746
 k-point 26 :   0.5329 0.0658 0.5329  plane waves:     748
 k-point 27 :   0.5395 0.0789 0.5395  plane waves:     748
 k-point 28 :   0.5461 0.0921 0.5461  plane waves:     744
 k-point 29 :   0.5526 0.1053 0.5526  plane waves:     746
 k-point 30 :   0.5592 0.1184 0.5592  plane waves:     746
 k-point 31 :   0.5658 0.1316 0.5658  plane waves:     748
 k-point 32 :   0.5724 0.1447 0.5724  plane waves:     752
 k-point 33 :   0.5789 0.1579 0.5789  plane waves:     744
 k-point 34 :   0.5855 0.1711 0.5855  plane waves:     744
 k-point 35 :   0.5921 0.1842 0.5921  plane waves:     746
 k-point 36 :   0.5987 0.1974 0.5987  plane waves:     746
 k-point 37 :   0.6053 0.2105 0.6053  plane waves:     746
 k-point 38 :   0.6118 0.2237 0.6118  plane waves:     746
 k-point 39 :   0.6184 0.2368 0.6184  plane waves:     746
 k-point 40 :   0.6250 0.2500 0.6250  plane waves:     740
 k-point 41 :   0.3750 0.3750 0.7500  plane waves:     740
 k-point 42 :   0.3553 0.3553 0.7105  plane waves:     738
 k-point 43 :   0.3355 0.3355 0.6711  plane waves:     740
 k-point 44 :   0.3158 0.3158 0.6316  plane waves:     740
 k-point 45 :   0.2961 0.2961 0.5921  plane waves:     752
 k-point 46 :   0.2763 0.2763 0.5526  plane waves:     750
 k-point 47 :   0.2566 0.2566 0.5132  plane waves:     754
 k-point 48 :   0.2368 0.2368 0.4737  plane waves:     750
 k-point 49 :   0.2171 0.2171 0.4342  plane waves:     754
 k-point 50 :   0.1974 0.1974 0.3947  plane waves:     746
 k-point 51 :   0.1776 0.1776 0.3553  plane waves:     750
 k-point 52 :   0.1579 0.1579 0.3158  plane waves:     749
 k-point 53 :   0.1382 0.1382 0.2763  plane waves:     753
 k-point 54 :   0.1184 0.1184 0.2368  plane waves:     759
 k-point 55 :   0.0987 0.0987 0.1974  plane waves:     759
 k-point 56 :   0.0789 0.0789 0.1579  plane waves:     749
 k-point 57 :   0.0592 0.0592 0.1184  plane waves:     737
 k-point 58 :   0.0395 0.0395 0.0789  plane waves:     737
 k-point 59 :   0.0197 0.0197 0.0395  plane waves:     737
 k-point 60 :   0.0000 0.0000 0.0000  plane waves:     725
 k-point 61 :   0.0000 0.0000 0.0000  plane waves:     725
 k-point 62 :   0.0263 0.0263 0.0263  plane waves:     737
 k-point 63 :   0.0526 0.0526 0.0526  plane waves:     737
 k-point 64 :   0.0789 0.0789 0.0789  plane waves:     737
 k-point 65 :   0.1053 0.1053 0.1053  plane waves:     743
 k-point 66 :   0.1316 0.1316 0.1316  plane waves:     743
 k-point 67 :   0.1579 0.1579 0.1579  plane waves:     749
 k-point 68 :   0.1842 0.1842 0.1842  plane waves:     760
 k-point 69 :   0.2105 0.2105 0.2105  plane waves:     757
 k-point 70 :   0.2368 0.2368 0.2368  plane waves:     754
 k-point 71 :   0.2632 0.2632 0.2632  plane waves:     757
 k-point 72 :   0.2895 0.2895 0.2895  plane waves:     757
 k-point 73 :   0.3158 0.3158 0.3158  plane waves:     757
 k-point 74 :   0.3421 0.3421 0.3421  plane waves:     757
 k-point 75 :   0.3684 0.3684 0.3684  plane waves:     757
 k-point 76 :   0.3947 0.3947 0.3947  plane waves:     763
 k-point 77 :   0.4211 0.4211 0.4211  plane waves:     760
 k-point 78 :   0.4474 0.4474 0.4474  plane waves:     763
 k-point 79 :   0.4737 0.4737 0.4737  plane waves:     754
 k-point 80 :   0.5000 0.5000 0.5000  plane waves:     754
 k-point 81 :   0.5000 0.5000 0.5000  plane waves:     754
 k-point 82 :   0.5000 0.4868 0.5132  plane waves:     754
 k-point 83 :   0.5000 0.4737 0.5263  plane waves:     754
 k-point 84 :   0.5000 0.4605 0.5395  plane waves:     752
 k-point 85 :   0.5000 0.4474 0.5526  plane waves:     750
 k-point 86 :   0.5000 0.4342 0.5658  plane waves:     752
 k-point 87 :   0.5000 0.4211 0.5789  plane waves:     750
 k-point 88 :   0.5000 0.4079 0.5921  plane waves:     748
 k-point 89 :   0.5000 0.3947 0.6053  plane waves:     750
 k-point 90 :   0.5000 0.3816 0.6184  plane waves:     748
 k-point 91 :   0.5000 0.3684 0.6316  plane waves:     744
 k-point 92 :   0.5000 0.3553 0.6447  plane waves:     744
 k-point 93 :   0.5000 0.3421 0.6579  plane waves:     738
 k-point 94 :   0.5000 0.3289 0.6711  plane waves:     738
 k-point 95 :   0.5000 0.3158 0.6842  plane waves:     740
 k-point 96 :   0.5000 0.3026 0.6974  plane waves:     740
 k-point 97 :   0.5000 0.2895 0.7105  plane waves:     738
 k-point 98 :   0.5000 0.2763 0.7237  plane waves:     738
 k-point 99 :   0.5000 0.2632 0.7368  plane waves:     744
 k-point ** :   0.5000 0.2500 0.7500  plane waves:     744
 k-point ** :   0.5000 0.2500 0.7500  plane waves:     744
 k-point ** :   0.5000 0.2368 0.7368  plane waves:     744
 k-point ** :   0.5000 0.2237 0.7237  plane waves:     744
 k-point ** :   0.5000 0.2105 0.7105  plane waves:     740
 k-point ** :   0.5000 0.1974 0.6974  plane waves:     746
 k-point ** :   0.5000 0.1842 0.6842  plane waves:     746
 k-point ** :   0.5000 0.1711 0.6711  plane waves:     746
 k-point ** :   0.5000 0.1579 0.6579  plane waves:     742
 k-point ** :   0.5000 0.1447 0.6447  plane waves:     742
 k-point ** :   0.5000 0.1316 0.6316  plane waves:     742
 k-point ** :   0.5000 0.1184 0.6184  plane waves:     746
 k-point ** :   0.5000 0.1053 0.6053  plane waves:     746
 k-point ** :   0.5000 0.0921 0.5921  plane waves:     750
 k-point ** :   0.5000 0.0789 0.5789  plane waves:     754
 k-point ** :   0.5000 0.0658 0.5658  plane waves:     758
 k-point ** :   0.5000 0.0526 0.5526  plane waves:     748
 k-point ** :   0.5000 0.0395 0.5395  plane waves:     744
 k-point ** :   0.5000 0.0263 0.5263  plane waves:     740
 k-point ** :   0.5000 0.0132 0.5132  plane waves:     740
 k-point ** :   0.5000 0.0000 0.5000  plane waves:     740

 maximum and minimum number of plane-waves per node :       159      136

 maximum number of plane-waves:       763
 maximum index in each direction: 
   IXMAX=    6   IYMAX=    6   IZMAX=    6
   IXMIN=   -6   IYMIN=   -6   IZMIN=   -7

 NGX is ok and might be reduce to  26
 NGY is ok and might be reduce to  26
 NGZ is ok and might be reduce to  28

 parallel 3D FFT for wavefunctions:
    minimum data exchange during FFTs selected (reduces bandwidth)
 parallel 3D FFT for charge:
    minimum data exchange during FFTs selected (reduces bandwidth)


 total amount of memory used by VASP on root node    37782. kBytes
========================================================================

   base      :      30000. kBytes
   nonl-proj :       5534. kBytes
   fftplans  :        394. kBytes
   grid      :        457. kBytes
   one-center:         15. kBytes
   wavefun   :       1382. kBytes
 
     INWAV:  cpu time    0.00: real time    0.00
 initial charge density was supplied:
 number of electron      19.9999914 magnetization 
 keeping initial charge density in first step


--------------------------------------------------------------------------------------------------------


 Maximum index for augmentation-charges  421 (set IRDMAX)


--------------------------------------------------------------------------------------------------------


 First call to EWALD:  gamma=   0.445
 Maximum number of real-space cells 3x 3x 3
 Maximum number of reciprocal cells 3x 3x 3

 FEWALD executed in parallel
    FEWALD:  cpu time    0.00: real time    0.00


----------------------------------------- Iteration    1(   1)  ---------------------------------------


    POTLOK:  cpu time    0.06: real time    0.06
    SETDIJ:  cpu time    0.01: real time    0.01
     EDDAV:  cpu time    7.42: real time    7.41
       DOS:  cpu time    0.00: real time    0.01
    --------------------------------------------
      LOOP:  cpu time    7.50: real time    7.56

 eigenvalue-minimisations  :  3872
 total energy-change (2. order) : 0.3243583E+02  (-0.8262919E+03)
 number of electron      19.9999914 magnetization 
 augmentation part       19.9999914 magnetization 

 Free energy of the ion-electron system (eV)
  ---------------------------------------------------
  alpha Z        PSCENC =        26.74713621
  Ewald energy   TEWEN  =     -1420.79165657
  -Hartree energ DENC   =      -624.06131123
  -exchange      EXHF   =         0.00000000
  -V(xc)+E(xc)   XCENC  =        28.85531748
  PAW double counting   =      2201.57570278    -2200.59215110
  entropy T*S    EENTRO =        -0.02229597
  eigenvalues    EBANDS =       -95.62017116
  atomic energy  EATOM  =      2116.34525819
  ---------------------------------------------------
  free energy    TOTEN  =        32.43582863 eV

  energy without entropy =       32.45812460  energy(sigma->0) =       32.44697662


--------------------------------------------------------------------------------------------------------




----------------------------------------- Iteration    1(   2)  ---------------------------------------


     EDDAV:  cpu time   10.39: real time   10.40
       DOS:  cpu time    0.01: real time    0.01
    --------------------------------------------
      LOOP:  cpu time   10.40: real time   10.53

 eigenvalue-minimisations  :  5392
 total energy-change (2. order) :-0.3947719E+02  (-0.3882160E+02)
 number of electron      19.9999914 magnetization 
 augmentation part       19.9999914 magnetization 

 Free energy of the ion-electron system (eV)
  ---------------------------------------------------
  alpha Z        PSCENC =        26.74713621
  Ewald energy   TEWEN  =     -1420.79165657
  -Hartree energ DENC   =      -624.06131123
  -exchange      EXHF   =         0.00000000
  -V(xc)+E(xc)   XCENC  =        28.85531748
  PAW double counting   =      2201.57570278    -2200.59215110
  entropy T*S    EENTRO =        -0.00890392
  eigenvalues    EBANDS =      -135.11075780
  atomic energy  EATOM  =      2116.34525819
  ---------------------------------------------------
  free energy    TOTEN  =        -7.04136595 eV

  energy without entropy =       -7.03246203  energy(sigma->0) =       -7.03691399


--------------------------------------------------------------------------------------------------------




----------------------------------------- Iteration    1(   3)  ---------------------------------------


     EDDAV:  cpu time    8.82: real time    8.81
       DOS:  cpu time    0.01: real time    0.01
    --------------------------------------------
      LOOP:  cpu time    8.83: real time    8.86

 eigenvalue-minimisations  :  4576
 total energy-change (2. order) :-0.7533114E+00  (-0.7527369E+00)
 number of electron      19.9999914 magnetization 
 augmentation part       19.9999914 magnetization 

 Free energy of the ion-electron system (eV)
  ---------------------------------------------------
  alpha Z        PSCENC =        26.74713621
  Ewald energy   TEWEN  =     -1420.79165657
  -Hartree energ DENC   =      -624.06131123
  -exchange      EXHF   =         0.00000000
  -V(xc)+E(xc)   XCENC  =        28.85531748
  PAW double counting   =      2201.57570278    -2200.59215110
  entropy T*S    EENTRO =        -0.00876573
  eigenvalues    EBANDS =      -135.86420738
  atomic energy  EATOM  =      2116.34525819
  ---------------------------------------------------
  free energy    TOTEN  =        -7.79467735 eV

  energy without entropy =       -7.78591161  energy(sigma->0) =       -7.79029448


--------------------------------------------------------------------------------------------------------




----------------------------------------- Iteration    1(   4)  ---------------------------------------


     EDDAV:  cpu time   12.28: real time   12.29
       DOS:  cpu time    0.01: real time    0.01
    --------------------------------------------
      LOOP:  cpu time   12.29: real time   12.32

 eigenvalue-minimisations  :  6208
 total energy-change (2. order) :-0.7827608E-02  (-0.7827572E-02)
 number of electron      19.9999914 magnetization 
 augmentation part       19.9999914 magnetization 

 Free energy of the ion-electron system (eV)
  ---------------------------------------------------
  alpha Z        PSCENC =        26.74713621
  Ewald energy   TEWEN  =     -1420.79165657
  -Hartree energ DENC   =      -624.06131123
  -exchange      EXHF   =         0.00000000
  -V(xc)+E(xc)   XCENC  =        28.85531748
  PAW double counting   =      2201.57570278    -2200.59215110
  entropy T*S    EENTRO =        -0.00876301
  eigenvalues    EBANDS =      -135.87203771
  atomic energy  EATOM  =      2116.34525819
  ---------------------------------------------------
  free energy    TOTEN  =        -7.80250495 eV

  energy without entropy =       -7.79374195  energy(sigma->0) =       -7.79812345


--------------------------------------------------------------------------------------------------------




----------------------------------------- Iteration    1(   5)  ---------------------------------------


     EDDAV:  cpu time    9.19: real time    9.19
       DOS:  cpu time    0.01: real time    0.01
    --------------------------------------------
      LOOP:  cpu time    9.20: real time    9.23

 eigenvalue-minimisations  :  4736
 total energy-change (2. order) :-0.4697360E-04  (-0.4697368E-04)
 number of electron      19.9999914 magnetization 
 augmentation part       19.9999914 magnetization 

 Free energy of the ion-electron system (eV)
  ---------------------------------------------------
  alpha Z        PSCENC =        26.74713621
  Ewald energy   TEWEN  =     -1420.79165657
  -Hartree energ DENC   =      -624.06131123
  -exchange      EXHF   =         0.00000000
  -V(xc)+E(xc)   XCENC  =        28.85531748
  PAW double counting   =      2201.57570278    -2200.59215110
  entropy T*S    EENTRO =        -0.00876304
  eigenvalues    EBANDS =      -135.87208465
  atomic energy  EATOM  =      2116.34525819
  ---------------------------------------------------
  free energy    TOTEN  =        -7.80255193 eV

  energy without entropy =       -7.79378889  energy(sigma->0) =       -7.79817041


--------------------------------------------------------------------------------------------------------




----------------------------------------- Iteration    1(   6)  ---------------------------------------


     EDDAV:  cpu time   11.64: real time   11.64
       DOS:  cpu time    0.01: real time    0.01
    --------------------------------------------
      LOOP:  cpu time   11.66: real time   11.67

 eigenvalue-minimisations  :  5808
 total energy-change (2. order) :-0.6044443E-06  (-0.6036397E-06)
 number of electron      19.9999914 magnetization 
 augmentation part       19.9999914 magnetization 

 Free energy of the ion-electron system (eV)
  ---------------------------------------------------
  alpha Z        PSCENC =        26.74713621
  Ewald energy   TEWEN  =     -1420.79165657
  -Hartree energ DENC   =      -624.06131123
  -exchange      EXHF   =         0.00000000
  -V(xc)+E(xc)   XCENC  =        28.85531748
  PAW double counting   =      2201.57570278    -2200.59215110
  entropy T*S    EENTRO =        -0.00876304
  eigenvalues    EBANDS =      -135.87208526
  atomic energy  EATOM  =      2116.34525819
  ---------------------------------------------------
  free energy    TOTEN  =        -7.80255253 eV

  energy without entropy =       -7.79378949  energy(sigma->0) =       -7.79817101


--------------------------------------------------------------------------------------------------------




 average (electrostatic) potential at core
  the test charge radii are     1.0894  1.1897
  (the norm of the test charge is              1.0000)
       1-100.6543       2 -87.8785
 
 
 
 E-fermi :   6.8831     XC(G=0):  -9.4610     alpha+bet :-11.4178


 k-point     1 :       0.0000    0.0000    0.0000
  band No.  band energies     occupation 
      1     -15.0154      2.00000
      2     -15.0154      2.00000
      3     -15.0113      2.00000
      4     -15.0113      2.00000
      5     -15.0113      2.00000
      6      -5.8870      2.00000
      7       2.1499      2.00000
      8       4.7364      2.00000
      9       4.7364      2.00000
     10       4.7364      2.00000
     11      10.1926      0.00000
     12      10.1926      0.00000
     13      10.1926      0.00000
     14      11.6259      0.00000
     15      11.6259      0.00000
     16      11.6259      0.00000

 k-point     2 :       0.0263    0.0000    0.0263
  band No.  band energies     occupation 
      1     -15.0156      2.00000
      2     -15.0155      2.00000
      3     -15.0113      2.00000
      4     -15.0113      2.00000
      5     -15.0113      2.00000
      6      -5.8792      2.00000
      7       2.1004      2.00000
      8       4.7217      2.00000
      9       4.7217      2.00000
     10       4.8058      2.00000
     11      10.0469      0.00000
     12      10.1927      0.00000
     13      10.1927      0.00000
     14      11.5719      0.00000
     15      11.6685      0.00000
     16      11.6685      0.00000

 k-point     3 :       0.0526    0.0000    0.0526
  band No.  band energies     occupation 
      1     -15.0159      2.00000
      2     -15.0154      2.00000
      3     -15.0114      2.00000
      4     -15.0111      2.00000
      5     -15.0111      2.00000
      6      -5.8559      2.00000
      7       1.9665      2.00000
      8       4.6783      2.00000
      9       4.6783      2.00000
     10       4.9975      2.00000
     11       9.6718      0.00000
     12      10.1957      0.00000
     13      10.1957      0.00000
     14      11.4290      0.00000
     15      11.7926      0.00000
     16      11.7926      0.00000

 k-point     4 :       0.0789    0.0000    0.0789
  band No.  band energies     occupation 
      1     -15.0164      2.00000
      2     -15.0153      2.00000
      3     -15.0115      2.00000
      4     -15.0108      2.00000
      5     -15.0108      2.00000
      6      -5.8173      2.00000
      7       1.7793      2.00000
      8       4.6089      2.00000
      9       4.6089      2.00000
     10       5.2755      2.00000
     11       9.1767      0.00000
     12      10.2076      0.00000
     13      10.2076      0.00000
     14      11.2336      0.00000
     15      11.9893      0.00000
     16      11.9893      0.00000

 k-point     5 :       0.1053    0.0000    0.1053
  band No.  band energies     occupation 
      1     -15.0173      2.00000
      2     -15.0150      2.00000
      3     -15.0117      2.00000
      4     -15.0103      2.00000
      5     -15.0103      2.00000
      6      -5.7638      2.00000
      7       1.5665      2.00000
      8       4.5175      2.00000
      9       4.5175      2.00000
     10       5.5980      2.00000
     11       8.6460      0.00000
     12      10.2341      0.00000
     13      10.2342      0.00000
     14      11.0147      0.00000
     15      12.2481      0.00000
     16      12.2481      0.00000

 k-point     6 :       0.1316    0.0000    0.1316
  band No.  band energies     occupation 
      1     -15.0183      2.00000
      2     -15.0148      2.00000
      3     -15.0119      2.00000
      4     -15.0101      2.00000
      5     -15.0101      2.00000
      6      -5.6957      2.00000
      7       1.3471      2.00000
      8       4.4089      2.00000
      9       4.4089      2.00000
     10       5.9088      2.00000
     11       8.1545      0.00000
     12      10.2790      0.00000
     13      10.2790      0.00000
     14      10.7897      0.00000
     15      12.5599      0.00000
     16      12.5599      0.00000

 k-point     7 :       0.1579    0.0000    0.1579
  band No.  band energies     occupation 
      1     -15.0193      2.00000
      2     -15.0146      2.00000
      3     -15.0123      2.00000
      4     -15.0095      2.00000
      5     -15.0095      2.00000
      6      -5.6139      2.00000
      7       1.1331      2.00000
      8       4.2880      2.00000
      9       4.2880      2.00000
     10       6.0908      2.00000
     11       7.8269      0.00000
     12      10.3436      0.00000
     13      10.3436      0.00000
     14      10.5682      0.00000
     15      12.9173      0.00000
     16      12.9173      0.00000

 k-point     8 :       0.1842    0.0000    0.1842
  band No.  band energies     occupation 
      1     -15.0203      2.00000
      2     -15.0142      2.00000
      3     -15.0125      2.00000
      4     -15.0085      2.00000
      5     -15.0085      2.00000
      6      -5.5192      2.00000
      7       0.9317      2.00000
      8       4.1595      2.00000
      9       4.1595      2.00000
     10       5.9716      2.00000
     11       7.8389      0.00000
     12      10.3561      0.00000
     13      10.4276      0.00000
     14      10.4277      0.00000
     15      13.3144      0.00000
     16      13.3144      0.00000

 k-point     9 :       0.2105    0.0000    0.2105
  band No.  band energies     occupation 
      1     -15.0216      2.00000
      2     -15.0138      2.00000
      3     -15.0128      2.00000
      4     -15.0077      2.00000
      5     -15.0076      2.00000
      6      -5.4130      2.00000
      7       0.7479      2.00000
      8       4.0280      2.00000
      9       4.0280      2.00000
     10       5.5871      2.00000
     11       8.1557      0.00000
     12      10.1564      0.00000
     13      10.5296      0.00000
     14      10.5296      0.00000
     15      13.7458      0.00000
     16      13.7459      0.00000

 k-point    10 :       0.2368    0.0000    0.2368
  band No.  band energies     occupation 
      1     -15.0229      2.00000
      2     -15.0135      2.00000
      3     -15.0131      2.00000
      4     -15.0068      2.00000
      5     -15.0068      2.00000
      6      -5.2969      2.00000
      7       0.5851      2.00000
      8       3.8974      2.00000
      9       3.8974      2.00000
     10       5.0978      2.00000
     11       8.6165      0.00000
     12       9.9712      0.00000
     13      10.6473      0.00000
     14      10.6474      0.00000
     15      14.2076      0.00000
     16      14.2089      0.00000

 k-point    11 :       0.2632    0.0000    0.2632
  band No.  band energies     occupation 
      1     -15.0241      2.00000
      2     -15.0134      2.00000
      3     -15.0130      2.00000
      4     -15.0057      2.00000
      5     -15.0057      2.00000
      6      -5.1731      2.00000
      7       0.4461      2.00000
      8       3.7709      2.00000
      9       3.7709      2.00000
     10       4.5823      2.00000
     11       9.1420      0.00000
     12       9.8018      0.00000
     13      10.7780      0.00000
     14      10.7780      0.00000
     15      14.4930      0.00000
     16      14.6961      0.00000

 k-point    12 :       0.2895    0.0000    0.2895
  band No.  band energies     occupation 
      1     -15.0256      2.00000
      2     -15.0140      2.00000
      3     -15.0128      2.00000
      4     -15.0049      2.00000
      5     -15.0049      2.00000
      6      -5.0441      2.00000
      7       0.3332      2.00000
      8       3.6514      2.00000
      9       3.6514      2.00000
     10       4.0701      2.00000
     11       9.6489      0.00000
     12       9.7005      0.00000
     13      10.9180      0.00000
     14      10.9180      0.00000
     15      14.6519      0.00000
     16      15.2069      0.00000

 k-point    13 :       0.3158    0.0000    0.3158
  band No.  band energies     occupation 
      1     -15.0270      2.00000
      2     -15.0143      2.00000
      3     -15.0124      2.00000
      4     -15.0040      2.00000
      5     -15.0040      2.00000
      6      -4.9133      2.00000
      7       0.2488      2.00000
      8       3.5412      2.00000
      9       3.5412      2.00000
     10       3.5751      2.00000
     11       9.5132      0.00000
     12      10.2751      0.00000
     13      11.0633      0.00000
     14      11.0633      0.00000
     15      14.8223      0.00000
     16      15.6760      0.00000

 k-point    14 :       0.3421    0.0000    0.3421
  band No.  band energies     occupation 
      1     -15.0286      2.00000
      2     -15.0145      2.00000
      3     -15.0121      2.00000
      4     -15.0033      2.00000
      5     -15.0032      2.00000
      6      -4.7847      2.00000
      7       0.1948      2.00000
      8       3.1054      2.00000
      9       3.4423      2.00000
     10       3.4423      2.00000
     11       9.3951      0.00000
     12      10.8528      0.00000
     13      11.2091      0.00000
     14      11.2091      0.00000
     15      15.0018      0.00000
     16      15.9048      0.00000

 k-point    15 :       0.3684    0.0000    0.3684
  band No.  band energies     occupation 
      1     -15.0296      2.00000
      2     -15.0149      2.00000
      3     -15.0118      2.00000
      4     -15.0027      2.00000
      5     -15.0027      2.00000
      6      -4.6629      2.00000
      7       0.1731      2.00000
      8       2.6673      2.00000
      9       3.3562      2.00000
     10       3.3562      2.00000
     11       9.2948      0.00000
     12      11.3497      0.00000
     13      11.3497      0.00000
     14      11.4193      0.00000
     15      15.1867      0.00000
     16      16.1541      0.00000

 k-point    16 :       0.3947    0.0000    0.3947
  band No.  band energies     occupation 
      1     -15.0307      2.00000
      2     -15.0151      2.00000
      3     -15.0115      2.00000
      4     -15.0020      2.00000
      5     -15.0020      2.00000
      6      -4.5528      2.00000
      7       0.1843      2.00000
      8       2.2675      2.00000
      9       3.2842      2.00000
     10       3.2842      2.00000
     11       9.2125      0.00000
     12      11.4789      0.00000
     13      11.4789      0.00000
     14      11.9566      0.00000
     15      15.3713      0.00000
     16      16.4220      0.00000

 k-point    17 :       0.4211    0.0000    0.4211
  band No.  band energies     occupation 
      1     -15.0315      2.00000
      2     -15.0151      2.00000
      3     -15.0113      2.00000
      4     -15.0015      2.00000
      5     -15.0015      2.00000
      6      -4.4600      2.00000
      7       0.2266      2.00000
      8       1.9144      2.00000
      9       3.2273      2.00000
     10       3.2273      2.00000
     11       9.1484      0.00000
     12      11.5897      0.00000
     13      11.5897      0.00000
     14      12.4396      0.00000
     15      15.5463      0.00000
     16      16.7058      0.00000

 k-point    18 :       0.4474    0.0000    0.4474
  band No.  band energies     occupation 
      1     -15.0320      2.00000
      2     -15.0153      2.00000
      3     -15.0112      2.00000
      4     -15.0011      2.00000
      5     -15.0011      2.00000
      6      -4.3893      2.00000
      7       0.2926      2.00000
      8       1.6216      2.00000
      9       3.1861      2.00000
     10       3.1861      2.00000
     11       9.1026      0.00000
     12      11.6753      0.00000
     13      11.6753      0.00000
     14      12.8342      0.00000
     15      15.6970      0.00000
     16      16.9967      0.00000

 k-point    19 :       0.4737    0.0000    0.4737
  band No.  band energies     occupation 
      1     -15.0323      2.00000
      2     -15.0153      2.00000
      3     -15.0111      2.00000
      4     -15.0008      2.00000
      5     -15.0007      2.00000
      6      -4.3450      2.00000
      7       0.3615      2.00000
      8       1.4146      2.00000
      9       3.1612      2.00000
     10       3.1612      2.00000
     11       9.0750      0.00000
     12      11.7294      0.00000
     13      11.7295      0.00000
     14      13.0982      0.00000
     15      15.8026      0.00000
     16      17.2692      0.00000

 k-point    20 :       0.5000    0.0000    0.5000
  band No.  band energies     occupation 
      1     -15.0325      2.00000
      2     -15.0153      2.00000
      3     -15.0110      2.00000
      4     -15.0007      2.00000
      5     -15.0007      2.00000
      6      -4.3299      2.00000
      7       0.3935      2.00000
      8       1.3362      2.00000
      9       3.1529      2.00000
     10       3.1529      2.00000
     11       9.0659      0.00000
     12      11.7480      0.00000
     13      11.7480      0.00000
     14      13.1920      0.00000
     15      15.8412      0.00000
     16      17.4173      0.00000

 k-point    21 :       0.5000    0.0000    0.5000
  band No.  band energies     occupation 
      1     -15.0325      2.00000
      2     -15.0153      2.00000
      3     -15.0110      2.00000
      4     -15.0007      2.00000
      5     -15.0007      2.00000
      6      -4.3299      2.00000
      7       0.3935      2.00000
      8       1.3362      2.00000
      9       3.1529      2.00000
     10       3.1529      2.00000
     11       9.0659      0.00000
     12      11.7480      0.00000
     13      11.7480      0.00000
     14      13.1920      0.00000
     15      15.8412      0.00000
     16      17.4194      0.00000

 k-point    22 :       0.5066    0.0132    0.5066
  band No.  band energies     occupation 
      1     -15.0325      2.00000
      2     -15.0153      2.00000
      3     -15.0110      2.00000
      4     -15.0007      2.00000
      5     -15.0007      2.00000
      6      -4.3296      2.00000
      7       0.3890      2.00000
      8       1.3373      2.00000
      9       3.1543      2.00000
     10       3.1571      2.00000
     11       9.0704      0.00000
     12      11.7393      0.00000
     13      11.7426      0.00000
     14      13.1893      0.00000
     15      15.8518      0.00000
     16      17.3754      0.00000

 k-point    23 :       0.5132    0.0263    0.5132
  band No.  band energies     occupation 
      1     -15.0324      2.00000
      2     -15.0153      2.00000
      3     -15.0111      2.00000
      4     -15.0007      2.00000
      5     -15.0007      2.00000
      6      -4.3288      2.00000
      7       0.3757      2.00000
      8       1.3406      2.00000
      9       3.1584      2.00000
     10       3.1698      2.00000
     11       9.0840      0.00000
     12      11.7133      0.00000
     13      11.7265      0.00000
     14      13.1815      0.00000
     15      15.8832      0.00000
     16      17.2755      0.00000

 k-point    24 :       0.5197    0.0395    0.5197
  band No.  band energies     occupation 
      1     -15.0323      2.00000
      2     -15.0152      2.00000
      3     -15.0111      2.00000
      4     -15.0008      2.00000
      5     -15.0007      2.00000
      6      -4.3274      2.00000
      7       0.3540      2.00000
      8       1.3462      2.00000
      9       3.1654      2.00000
     10       3.1905      2.00000
     11       9.1065      0.00000
     12      11.6709      0.00000
     13      11.6999      0.00000
     14      13.1684      0.00000
     15      15.9347      0.00000
     16      17.1500      0.00000

 k-point    25 :       0.5263    0.0526    0.5263
  band No.  band energies     occupation 
      1     -15.0323      2.00000
      2     -15.0153      2.00000
      3     -15.0113      2.00000
      4     -15.0009      2.00000
      5     -15.0007      2.00000
      6      -4.3256      2.00000
      7       0.3243      2.00000
      8       1.3540      2.00000
      9       3.1751      2.00000
     10       3.2188      2.00000
     11       9.1379      0.00000
     12      11.6132      0.00000
     13      11.6634      0.00000
     14      13.1502      0.00000
     15      16.0050      0.00000
     16      17.0129      0.00000

 k-point    26 :       0.5329    0.0658    0.5329
  band No.  band energies     occupation 
      1     -15.0322      2.00000
      2     -15.0152      2.00000
      3     -15.0114      2.00000
      4     -15.0010      2.00000
      5     -15.0008      2.00000
      6      -4.3232      2.00000
      7       0.2874      2.00000
      8       1.3640      2.00000
      9       3.1876      2.00000
     10       3.2543      2.00000
     11       9.1779      0.00000
     12      11.5418      0.00000
     13      11.6178      0.00000
     14      13.1270      0.00000
     15      16.0927      0.00000
     16      16.8725      0.00000

 k-point    27 :       0.5395    0.0789    0.5395
  band No.  band energies     occupation 
      1     -15.0320      2.00000
      2     -15.0151      2.00000
      3     -15.0115      2.00000
      4     -15.0011      2.00000
      5     -15.0008      2.00000
      6      -4.3204      2.00000
      7       0.2440      2.00000
      8       1.3762      2.00000
      9       3.2029      2.00000
     10       3.2961      2.00000
     11       9.2264      0.00000
     12      11.4584      0.00000
     13      11.5637      0.00000
     14      13.0989      0.00000
     15      16.1960      0.00000
     16      16.7264      0.00000

 k-point    28 :       0.5461    0.0921    0.5461
  band No.  band energies     occupation 
      1     -15.0318      2.00000
      2     -15.0148      2.00000
      3     -15.0117      2.00000
      4     -15.0012      2.00000
      5     -15.0009      2.00000
      6      -4.3173      2.00000
      7       0.1950      2.00000
      8       1.3906      2.00000
      9       3.2209      2.00000
     10       3.3436      2.00000
     11       9.2830      0.00000
     12      11.3645      0.00000
     13      11.5023      0.00000
     14      13.0660      0.00000
     15      16.3135      0.00000
     16      16.5819      0.00000

 k-point    29 :       0.5526    0.1053    0.5526
  band No.  band energies     occupation 
      1     -15.0316      2.00000
      2     -15.0146      2.00000
      3     -15.0119      2.00000
      4     -15.0013      2.00000
      5     -15.0009      2.00000
      6      -4.3139      2.00000
      7       0.1413      2.00000
      8       1.4071      2.00000
      9       3.2417      2.00000
     10       3.3962      2.00000
     11       9.3473      0.00000
     12      11.2617      0.00000
     13      11.4345      0.00000
     14      13.0286      0.00000
     15      16.4378      0.00000
     16      16.4440      0.00000

 k-point    30 :       0.5592    0.1184    0.5592
  band No.  band energies     occupation 
      1     -15.0314      2.00000
      2     -15.0144      2.00000
      3     -15.0121      2.00000
      4     -15.0014      2.00000
      5     -15.0010      2.00000
      6      -4.3103      2.00000
      7       0.0837      2.00000
      8       1.4259      2.00000
      9       3.2651      2.00000
     10       3.4532      2.00000
     11       9.4185      0.00000
     12      11.1515      0.00000
     13      11.3618      0.00000
     14      12.9868      0.00000
     15      16.2936      0.00000
     16      16.5920      0.00000

 k-point    31 :       0.5658    0.1316    0.5658
  band No.  band energies     occupation 
      1     -15.0312      2.00000
      2     -15.0142      2.00000
      3     -15.0124      2.00000
      4     -15.0016      2.00000
      5     -15.0011      2.00000
      6      -4.3066      2.00000
      7       0.0230      2.00000
      8       1.4469      2.00000
      9       3.2913      2.00000
     10       3.5140      2.00000
     11       9.4960      0.00000
     12      11.0353      0.00000
     13      11.2854      0.00000
     14      12.9408      0.00000
     15      16.1510      0.00000
     16      16.5071      0.00000

 k-point    32 :       0.5724    0.1447    0.5724
  band No.  band energies     occupation 
      1     -15.0310      2.00000
      2     -15.0141      2.00000
      3     -15.0127      2.00000
      4     -15.0018      2.00000
      5     -15.0012      2.00000
      6      -4.3030      2.00000
      7      -0.0398      2.00000
      8       1.4699      2.00000
      9       3.3201      2.00000
     10       3.5781      2.00000
     11       9.5784      0.00000
     12      10.9141      0.00000
     13      11.2073      0.00000
     14      12.8909      0.00000
     15      16.0089      0.00000
     16      16.3630      0.00000

 k-point    33 :       0.5789    0.1579    0.5789
  band No.  band energies     occupation 
      1     -15.0307      2.00000
      2     -15.0137      2.00000
      3     -15.0128      2.00000
      4     -15.0018      2.00000
      5     -15.0013      2.00000
      6      -4.2994      2.00000
      7      -0.1041      2.00000
      8       1.4952      2.00000
      9       3.3516      2.00000
     10       3.6450      2.00000
     11       9.6641      0.00000
     12      10.7891      0.00000
     13      11.1298      0.00000
     14      12.8373      0.00000
     15      15.8684      0.00000
     16      16.2196      0.00000

 k-point    34 :       0.5855    0.1711    0.5855
  band No.  band energies     occupation 
      1     -15.0304      2.00000
      2     -15.0135      2.00000
      3     -15.0130      2.00000
      4     -15.0019      2.00000
      5     -15.0014      2.00000
      6      -4.2962      2.00000
      7      -0.1691      2.00000
      8       1.5225      2.00000
      9       3.3858      2.00000
     10       3.7143      2.00000
     11       9.7502      0.00000
     12      10.6611      0.00000
     13      11.0561      0.00000
     14      12.7803      0.00000
     15      15.7292      0.00000
     16      16.0788      0.00000

 k-point    35 :       0.5921    0.1842    0.5921
  band No.  band energies     occupation 
      1     -15.0301      2.00000
      2     -15.0133      2.00000
      3     -15.0132      2.00000
      4     -15.0022      2.00000
      5     -15.0015      2.00000
      6      -4.2934      2.00000
      7      -0.2342      2.00000
      8       1.5520      2.00000
      9       3.4225      2.00000
     10       3.7856      2.00000
     11       9.8325      0.00000
     12      10.5308      0.00000
     13      10.9907      0.00000
     14      12.7201      0.00000
     15      15.5914      0.00000
     16      15.9400      0.00000

 k-point    36 :       0.5987    0.1974    0.5987
  band No.  band energies     occupation 
      1     -15.0298      2.00000
      2     -15.0136      2.00000
      3     -15.0129      2.00000
      4     -15.0024      2.00000
      5     -15.0016      2.00000
      6      -4.2912      2.00000
      7      -0.2987      2.00000
      8       1.5835      2.00000
      9       3.4618      2.00000
     10       3.8588      2.00000
     11       9.9045      0.00000
     12      10.3990      0.00000
     13      10.9407      0.00000
     14      12.6570      0.00000
     15      15.4550      0.00000
     16      15.8031      0.00000

 k-point    37 :       0.6053    0.2105    0.6053
  band No.  band energies     occupation 
      1     -15.0294      2.00000
      2     -15.0139      2.00000
      3     -15.0126      2.00000
      4     -15.0026      2.00000
      5     -15.0017      2.00000
      6      -4.2898      2.00000
      7      -0.3619      2.00000
      8       1.6171      2.00000
      9       3.5036      2.00000
     10       3.9335      2.00000
     11       9.9573      0.00000
     12      10.2662      0.00000
     13      10.9151      0.00000
     14      12.5912      0.00000
     15      15.3203      0.00000
     16      15.6683      0.00000

 k-point    38 :       0.6118    0.2237    0.6118
  band No.  band energies     occupation 
      1     -15.0291      2.00000
      2     -15.0142      2.00000
      3     -15.0123      2.00000
      4     -15.0029      2.00000
      5     -15.0019      2.00000
      6      -4.2893      2.00000
      7      -0.4235      2.00000
      8       1.6527      2.00000
      9       3.5479      2.00000
     10       4.0096      2.00000
     11       9.9813      0.00000
     12      10.1329      0.00000
     13      10.9237      0.00000
     14      12.5231      0.00000
     15      15.1870      0.00000
     16      15.5355      0.00000

 k-point    39 :       0.6184    0.2368    0.6184
  band No.  band energies     occupation 
      1     -15.0287      2.00000
      2     -15.0145      2.00000
      3     -15.0119      2.00000
      4     -15.0031      2.00000
      5     -15.0020      2.00000
      6      -4.2900      2.00000
      7      -0.4827      2.00000
      8       1.6904      2.00000
      9       3.5947      2.00000
     10       4.0871      2.00000
     11       9.9717      0.00000
     12       9.9995      0.00000
     13      10.9716      0.00000
     14      12.4529      0.00000
     15      15.0554      0.00000
     16      15.4049      0.00000

 k-point    40 :       0.6250    0.2500    0.6250
  band No.  band energies     occupation 
      1     -15.0283      2.00000
      2     -15.0147      2.00000
      3     -15.0115      2.00000
      4     -15.0033      2.00000
      5     -15.0021      2.00000
      6      -4.2920      2.00000
      7      -0.5391      2.00000
      8       1.7300      2.00000
      9       3.6438      2.00000
[...]
      8       1.6476      2.00000
      9       2.6007      2.00000
     10       4.8352      2.00000
     11       9.1484      0.00000
     12      10.2100      0.00000
     13      12.1680      0.00000
     14      12.4953      0.00000
     15      14.2961      0.00000
     16      16.8704      0.00000

 k-point   109 :       0.5000    0.1447    0.6447
  band No.  band energies     occupation 
      1     -15.0296      2.00000
      2     -15.0136      2.00000
      3     -15.0126      2.00000
      4     -15.0035      2.00000
      5     -15.0007      2.00000
      6      -4.2766      2.00000
      7      -0.2187      2.00000
      8       1.5991      2.00000
      9       2.6740      2.00000
     10       4.6184      2.00000
     11       9.4359      0.00000
     12      10.0458      0.00000
     13      12.0991      0.00000
     14      12.6022      0.00000
     15      14.5529      0.00000
     16      16.7996      0.00000

 k-point   110 :       0.5000    0.1316    0.6316
  band No.  band energies     occupation 
      1     -15.0300      2.00000
      2     -15.0132      2.00000
      3     -15.0131      2.00000
      4     -15.0030      2.00000
      5     -15.0007      2.00000
      6      -4.2839      2.00000
      7      -0.1536      2.00000
      8       1.5544      2.00000
      9       2.7450      2.00000
     10       4.4079      2.00000
     11       9.7252      0.00000
     12       9.8903      0.00000
     13      12.0369      0.00000
     14      12.7003      0.00000
     15      14.8198      0.00000
     16      16.7240      0.00000

 k-point   111 :       0.5000    0.1184    0.6184
  band No.  band energies     occupation 
      1     -15.0304      2.00000
      2     -15.0135      2.00000
      3     -15.0129      2.00000
      4     -15.0027      2.00000
      5     -15.0008      2.00000
      6      -4.2911      2.00000
      7      -0.0842      2.00000
      8       1.5136      2.00000
      9       2.8131      2.00000
     10       4.2056      2.00000
     11       9.7449      0.00000
     12      10.0132      0.00000
     13      11.9812      0.00000
     14      12.7900      0.00000
     15      15.0954      0.00000
     16      16.6420      0.00000

 k-point   112 :       0.5000    0.1053    0.6053
  band No.  band energies     occupation 
      1     -15.0309      2.00000
      2     -15.0139      2.00000
      3     -15.0125      2.00000
      4     -15.0023      2.00000
      5     -15.0008      2.00000
      6      -4.2982      2.00000
      7      -0.0122      2.00000
      8       1.4768      2.00000
      9       2.8772      2.00000
     10       4.0138      2.00000
     11       9.6107      0.00000
     12      10.2966      0.00000
     13      11.9318      0.00000
     14      12.8713      0.00000
     15      15.3783      0.00000
     16      16.5525      0.00000

 k-point   113 :       0.5000    0.0921    0.5921
  band No.  band energies     occupation 
      1     -15.0313      2.00000
      2     -15.0144      2.00000
      3     -15.0122      2.00000
      4     -15.0019      2.00000
      5     -15.0008      2.00000
      6      -4.3049      2.00000
      7       0.0609      2.00000
      8       1.4442      2.00000
      9       2.9367      2.00000
     10       3.8346      2.00000
     11       9.4888      0.00000
     12      10.5719      0.00000
     13      11.8884      0.00000
     14      12.9441      0.00000
     15      15.6672      0.00000
     16      16.4541      0.00000

 k-point   114 :       0.5000    0.0789    0.5789
  band No.  band energies     occupation 
      1     -15.0316      2.00000
      2     -15.0147      2.00000
      3     -15.0121      2.00000
      4     -15.0017      2.00000
      5     -15.0008      2.00000
      6      -4.3111      2.00000
      7       0.1330      2.00000
      8       1.4157      2.00000
      9       2.9906      2.00000
     10       3.6701      2.00000
     11       9.3805      0.00000
     12      10.8346      0.00000
     13      11.8510      0.00000
     14      13.0082      0.00000
     15      15.9605      0.00000
     16      16.3469      0.00000

 k-point   115 :       0.5000    0.0658    0.5658
  band No.  band energies     occupation 
      1     -15.0320      2.00000
      2     -15.0151      2.00000
      3     -15.0118      2.00000
      4     -15.0014      2.00000
      5     -15.0008      2.00000
      6      -4.3165      2.00000
      7       0.2017      2.00000
      8       1.3915      2.00000
      9       3.0381      2.00000
     10       3.5231      2.00000
     11       9.2867      0.00000
     12      11.0790      0.00000
     13      11.8194      0.00000
     14      13.0632      0.00000
     15      16.2331      0.00000
     16      16.2564      0.00000

 k-point   116 :       0.5000    0.0526    0.5526
  band No.  band energies     occupation 
      1     -15.0321      2.00000
      2     -15.0152      2.00000
      3     -15.0115      2.00000
      4     -15.0011      2.00000
      5     -15.0007      2.00000
      6      -4.3212      2.00000
      7       0.2643      2.00000
      8       1.3717      2.00000
      9       3.0783      2.00000
     10       3.3963      2.00000
     11       9.2085      0.00000
     12      11.2983      0.00000
     13      11.7936      0.00000
     14      13.1090      0.00000
     15      16.1183      0.00000
     16      16.5522      0.00000

 k-point   117 :       0.5000    0.0395    0.5395
  band No.  band energies     occupation 
      1     -15.0323      2.00000
      2     -15.0152      2.00000
      3     -15.0113      2.00000
      4     -15.0009      2.00000
      5     -15.0007      2.00000
      6      -4.3249      2.00000
      7       0.3176      2.00000
      8       1.3562      2.00000
      9       3.1104      2.00000
     10       3.2930      2.00000
     11       9.1467      0.00000
     12      11.4840      0.00000
     13      11.7736      0.00000
     14      13.1450      0.00000
     15      16.0107      0.00000
     16      16.8425      0.00000

 k-point   118 :       0.5000    0.0263    0.5263
  band No.  band energies     occupation 
      1     -15.0324      2.00000
      2     -15.0152      2.00000
      3     -15.0111      2.00000
      4     -15.0008      2.00000
      5     -15.0007      2.00000
      6      -4.3277      2.00000
      7       0.3587      2.00000
      8       1.3451      2.00000
      9       3.1338      2.00000
     10       3.2163      2.00000
     11       9.1020      0.00000
     12      11.6267      0.00000
     13      11.7594      0.00000
     14      13.1710      0.00000
     15      15.9215      0.00000
     16      17.1142      0.00000

 k-point   119 :       0.5000    0.0132    0.5132
  band No.  band energies     occupation 
      1     -15.0324      2.00000
      2     -15.0153      2.00000
      3     -15.0111      2.00000
      4     -15.0007      2.00000
      5     -15.0007      2.00000
      6      -4.3293      2.00000
      7       0.3846      2.00000
      8       1.3384      2.00000
      9       3.1481      2.00000
     10       3.1689      2.00000
     11       9.0749      0.00000
     12      11.7170      0.00000
     13      11.7509      0.00000
     14      13.1867      0.00000
     15      15.8621      0.00000
     16      17.3307      0.00000

 k-point   120 :       0.5000    0.0000    0.5000
  band No.  band energies     occupation 
      1     -15.0325      2.00000
      2     -15.0153      2.00000
      3     -15.0110      2.00000
      4     -15.0007      2.00000
      5     -15.0007      2.00000
      6      -4.3299      2.00000
      7       0.3935      2.00000
      8       1.3362      2.00000
      9       3.1529      2.00000
     10       3.1529      2.00000
     11       9.0659      0.00000
     12      11.7480      0.00000
     13      11.7480      0.00000
     14      13.1920      0.00000
     15      15.8412      0.00000
     16      17.4196      0.00000


--------------------------------------------------------------------------------------------------------


 soft charge-density along one line, spin component 1
         0         1         2         3         4         5         6         7         8         9
 total charge-density along one line
 
 pseudopotential strength for first ion, spin component: 1
-16.732   0.000   0.000   0.000   0.000   0.000   0.000   0.000   0.000   0.000   3.056   0.000   0.000   0.000   0.000   0.000
  0.000   0.000 -16.732   0.000   0.000   0.000   0.000   0.000   0.000   0.000   0.000   0.000   3.056   0.000   0.000   0.000
  0.000   0.000   0.000   0.000 -16.724   0.000   0.000   0.000   0.000   0.000   0.000   0.000   0.000   0.000   3.052   0.000
  0.000   0.000   0.000   0.000   0.000   0.000 -16.732   0.000   0.000   0.000   0.000   0.000   0.000   0.000   0.000   0.000
  0.000   0.000   0.000   0.000   0.000   0.000   0.000   0.000 -16.724   0.000   0.000   0.000   0.000   0.000   0.000   0.000
  3.056   0.000   0.000   0.000   0.000   0.000   0.000   0.000   0.000   0.000   4.391   0.000   0.000   0.000   0.000   0.000
  0.000   0.000   3.056   0.000   0.000   0.000   0.000   0.000   0.000   0.000   0.000   0.000   4.391   0.000   0.000   0.000
  0.000   0.000   0.000   0.000   3.052   0.000   0.000   0.000   0.000   0.000   0.000   0.000   0.000   0.000   4.391   0.000
  0.000   0.000   0.000   0.000   0.000   0.000   3.056   0.000   0.000   0.000   0.000   0.000   0.000   0.000   0.000   0.000
  0.000   0.000   0.000   0.000   0.000   0.000   0.000   0.000   3.052   0.000   0.000   0.000   0.000   0.000   0.000   0.000
  0.000   0.000   0.000   0.000   0.000   0.000   0.000   0.000   0.000   0.000   0.000   0.000   0.000   0.000   0.000   0.000
  0.000   0.000   0.000   0.000   0.000   0.000   0.000   0.000   0.000   0.000   0.000   0.000   0.000   0.000   0.000   0.000
  0.000   0.000   0.000   0.000   0.000   0.000   0.000   0.000   0.000   0.000   0.000   0.000   0.000   0.000   0.000   0.000
  0.000   0.000   0.000   0.000   0.000   0.000   0.000   0.000   0.000   0.000   0.000   0.000   0.000   0.000   0.000   0.000
  0.000   0.000   0.000   0.000   0.000   0.000   0.000   0.000   0.000   0.000   0.000   0.000   0.000   0.000   0.000   0.000
  0.000   0.000   0.000   0.000   0.000   0.000   0.000   0.000   0.000   0.000   0.000   0.000   0.000   0.000   0.000   0.000
  0.000   0.000   0.000   0.000   0.000   0.000   0.000   0.000   0.000   0.000   0.000   0.000   0.000   0.000   0.000   0.000
  0.000   0.000   0.000   0.000   0.000   0.000   0.000   0.000   0.000   0.000   0.000   0.000   0.000   0.000   0.000   0.000
 total augmentation occupancy for first ion, spin component: 1
  2.000   0.000   0.000   0.000   0.000   0.000   0.000   0.000   0.000   0.000   0.000   0.000   0.000   0.000   0.000   0.000
  0.000   2.000   0.000   0.000   0.000   0.000   0.000   0.000   0.000   0.000   0.000   0.000   0.000   0.000   0.000   0.000
  0.000   0.000   2.000   0.000   0.000   0.000   0.000   0.000   0.000   0.000   0.000   0.000   0.000   0.000   0.000   0.000
  0.000   0.000   0.000   2.000   0.000   0.000   0.000   0.000   0.000   0.000   0.000   0.000   0.000   0.000   0.000   0.000
  0.000   0.000   0.000   0.000   2.000   0.000   0.000   0.000   0.000   0.000   0.000   0.000   0.000   0.000   0.000   0.000
  0.000   0.000   0.000   0.000   0.000   0.000   0.000   0.000   0.000   0.000   0.000   0.000   0.000   0.000   0.000   0.000
  0.000   0.000   0.000   0.000   0.000   0.000   0.000   0.000   0.000   0.000   0.000   0.000   0.000   0.000   0.000   0.000
  0.000   0.000   0.000   0.000   0.000   0.000   0.000   0.000   0.000   0.000   0.000   0.000   0.000   0.000   0.000   0.000
  0.000   0.000   0.000   0.000   0.000   0.000   0.000   0.000   0.000   0.000   0.000   0.000   0.000   0.000   0.000   0.000
  0.000   0.000   0.000   0.000   0.000   0.000   0.000   0.000   0.000   0.000   0.000   0.000   0.000   0.000   0.000   0.000
  0.000   0.000   0.000   0.000   0.000   0.000   0.000   0.000   0.000   0.000   2.000   0.000   0.000   0.000   0.000   0.000
  0.000   0.000   0.000   0.000   0.000   0.000   0.000   0.000   0.000   0.000   0.000   0.000   0.000   0.000   0.000   0.000
  0.000   0.000   0.000   0.000   0.000   0.000   0.000   0.000   0.000   0.000   0.000   0.000   0.667   0.000   0.000   0.000
  0.000   0.000   0.000   0.000   0.000   0.000   0.000   0.000   0.000   0.000   0.000   0.000   0.000   0.667   0.000   0.000
  0.000   0.000   0.000   0.000   0.000   0.000   0.000   0.000   0.000   0.000   0.000   0.000   0.000   0.000   0.667   0.000
  0.000   0.000   0.000   0.000   0.000   0.000   0.000   0.000   0.000   0.000   0.000   0.000   0.000   0.000   0.000   0.000
  0.000   0.000   0.000   0.000   0.000   0.000   0.000   0.000   0.000   0.000   0.000   0.000   0.000   0.000   0.000   0.000
  0.000   0.000   0.000   0.000   0.000   0.000   0.000   0.000   0.000   0.000   0.000   0.000   0.000   0.000   0.000   0.000


------------------------ aborting loop because EDIFF is reached ----------------------------------------


 


 total charge     
 
# of ion     s       p       d       tot
----------------------------------------
  1        1.369   0.740   9.962  12.071
  2        1.412   2.015   0.021   3.449
------------------------------------------------
tot        2.781   2.755   9.983  15.519
 
    CHARGE:  cpu time    0.56: real time    0.56
    FORLOC:  cpu time    0.01: real time    0.00
    FORNL :  cpu time    0.24: real time    0.24
    STRESS:  cpu time    1.93: real time    1.93
    FORCOR:  cpu time    0.03: real time    0.02
    FORHAR:  cpu time    0.00: real time    0.01
    OFIELD:  cpu time    0.00: real time    0.00

  FORCE on cell =-STRESS in cart. coord.  units (eV):
  Direction    XX          YY          ZZ          XY          YZ          ZX
  --------------------------------------------------------------------------------------
  Alpha Z    26.74714    26.74714    26.74714
  Ewald    -473.59734  -473.59734  -473.59734     0.00000     0.00000     0.00000
  Hartree   208.04878   208.04878   208.04878     0.00000     0.00000     0.00000
  E(xc)     -94.27173   -94.27173   -94.27173     0.00002     0.00002     0.00002
  Local    -145.39384  -145.39384  -145.39384     0.00007     0.00007     0.00007
  n-local   185.28706   183.70546   184.14791    -0.10108    -0.24540    -0.13747
  augment   150.67209   150.67209   150.67209    -0.00002    -0.00002    -0.00002
  Kinetic   149.19489   141.93329   144.58021    -2.44804    -1.29715    -2.00540
  Fock        0.00000     0.00000     0.00000     0.00000     0.00000     0.00000
  -------------------------------------------------------------------------------------
  Total       1.82137     1.82137     1.82137     0.00000     0.00000     0.00000
  in kB      46.28377    46.28377    46.28377     0.00000     0.00000     0.00000
  external pressure =       46.28 kB  Pullay stress =        0.00 kB


 VOLUME and BASIS-vectors are now :
 -----------------------------------------------------------------------------
  energy-cutoff  :      301.35
  volume of cell :       63.05
      direct lattice vectors                 reciprocal lattice vectors
     0.000000000  3.159000071  3.159000071    -0.158277933  0.158277933  0.158277933
     3.159000071  0.000000000  3.159000071     0.158277933 -0.158277933  0.158277933
     3.159000071  3.159000071  0.000000000     0.158277933  0.158277933 -0.158277933

  length of vectors
     4.467500743  4.467500743  4.467500743     0.274145421  0.274145421  0.274145421


 FORCES acting on ions
    electron-ion (+dipol)            ewald-force                    non-local-force                 convergence-correction
 -----------------------------------------------------------------------------------------------
   -.479E-13 -.509E-13 -.484E-13   0.316E-15 -.391E-14 -.501E-14   0.902E-22 -.157E-22 -.394E-23   0.236E-13 0.455E-13 0.117E-13
   0.747E-13 0.607E-13 0.615E-13   0.398E-15 0.159E-14 0.486E-14   0.359E-23 0.499E-22 0.204E-22   0.380E-14 -.376E-14 -.144E-13
 -----------------------------------------------------------------------------------------------
   0.268E-13 0.979E-14 0.131E-13   0.714E-15 -.232E-14 -.153E-15   0.937E-22 0.342E-22 0.165E-22   0.274E-13 0.418E-13 -.267E-14
 
 
 POSITION                                       TOTAL-FORCE (eV/Angst)
 -----------------------------------------------------------------------------------
      0.00000      0.00000      0.00000         0.000000      0.000000      0.000000
      3.15900      3.15900      3.15900         0.000000      0.000000      0.000000
 -----------------------------------------------------------------------------------
    total drift:                                0.000000      0.000000      0.000000


--------------------------------------------------------------------------------------------------------



  FREE ENERGIE OF THE ION-ELECTRON SYSTEM (eV)
  ---------------------------------------------------
  free  energy   TOTEN  =        -7.80255253 eV

  energy  without entropy=       -7.79378949  energy(sigma->0) =       -7.79817101
 


--------------------------------------------------------------------------------------------------------


    POTLOK:  cpu time    0.03: real time    0.15


--------------------------------------------------------------------------------------------------------


     LOOP+:  cpu time   63.05: real time   63.57
    4ORBIT:  cpu time    0.00: real time    0.00
 


 total charge     
 
# of ion     s       p       d       tot
----------------------------------------
  1        1.369   0.740   9.962  12.071
  2        1.412   2.015   0.021   3.449
------------------------------------------------
tot        2.781   2.755   9.983  15.519
 

 total amount of memory used by VASP on root node    37782. kBytes
========================================================================

   base      :      30000. kBytes
   nonl-proj :       5534. kBytes
   fftplans  :        394. kBytes
   grid      :        457. kBytes
   one-center:         15. kBytes
   wavefun   :       1382. kBytes
 
  
  
 General timing and accounting informations for this job:
 ========================================================
  
                  Total CPU time used (sec):       67.080
                            User time (sec):       63.960
                          System time (sec):        3.120
                         Elapsed time (sec):       97.011
  
                   Maximum memory used (kb):       35088.
                   Average memory used (kb):           0.
  
                          Minor page faults:         1903
                          Major page faults:            0
                 Voluntary context switches:         1079
                                     fft time:       14.513
                                    ifft time:       13.891
                               wave init time:        0.298
                                   random num:        0.000
                              eccp local time:        0.190
                                eccp kin time:        0.015
                           eccp nonlocal time:        0.020
                                 v hamil time:        0.564
                               kin hamil time:        0.039
                          onlocal hamil  time:        0.000
                           nonlocal proj time:        0.000
                           nonlocal racc time:        0.000
                               fftbas called:            0
                           fftbas_mpi called:        21473
                               ranmar called:      2862477
                                       dis pw:        0.513
                                  tcrexp_wave:        0.000
                                  twork_crexp:       0.000
                                       tphase:        0.000
                                       tfornl:        0.000
