PROCAR lm decomposed
# of k-points:  120         # of bands:  16         # of ions:   2

 k-point    1 :    0.00000000 0.00000000 0.00000000     weight = 0.00833333

band   1 # energy  -15.01542280 # occ.  2.00000000
 
ion      s     py     pz     px    dxy    dyz    dz2    dxz    dx2    tot
  1  0.000  0.000  0.000  0.000  0.000  0.000  0.022  0.000  0.968  0.990
  2  0.000  0.000  0.000  0.000  0.000  0.000  0.000  0.000  0.000  0.000
tot  0.000  0.000  0.000  0.000  0.000  0.000  0.022  0.000  0.968  0.990
 
band   2 # energy  -15.01542280 # occ.  2.00000000
 
ion      s     py     pz     px    dxy    dyz    dz2    dxz    dx2    tot
  1  0.000  0.000  0.000  0.000  0.000  0.000  0.968  0.000  0.022  0.990
  2  0.000  0.000  0.000  0.000  0.000  0.000  0.000  0.000  0.000  0.000
tot  0.000  0.000  0.000  0.000  0.000  0.000  0.968  0.000  0.022  0.990
 
band   3 # energy  -15.01126169 # occ.  2.00000000
 
ion      s     py     pz     px    dxy    dyz    dz2    dxz    dx2    tot
  1  0.000  0.000  0.000  0.000  0.330  0.330  0.000  0.330  0.000  0.990
  2  0.000  0.000  0.000  0.000  0.000  0.000  0.000  0.000  0.000  0.000
tot  0.000  0.000  0.000  0.000  0.330  0.330  0.000  0.330  0.000  0.990
 
band   4 # energy  -15.01125232 # occ.  2.00000000
 
ion      s     py     pz     px    dxy    dyz    dz2    dxz    dx2    tot
  1  0.000  0.000  0.000  0.000  0.450  0.005  0.000  0.535  0.000  0.990
  2  0.000  0.000  0.000  0.000  0.000  0.000  0.000  0.000  0.000  0.000
tot  0.000  0.000  0.000  0.000  0.450  0.005  0.000  0.535  0.000  0.990
 
band   5 # energy  -15.01125232 # occ.  2.00000000
 
ion      s     py     pz     px    dxy    dyz    dz2    dxz    dx2    tot
  1  0.000  0.000  0.000  0.000  0.211  0.655  0.000  0.125  0.000  0.990
  2  0.000  0.000  0.000  0.000  0.000  0.000  0.000  0.000  0.000  0.000
tot  0.000  0.000  0.000  0.000  0.211  0.655  0.000  0.125  0.000  0.990
 
band   6 # energy   -5.88696961 # occ.  2.00000000
 
ion      s     py     pz     px    dxy    dyz    dz2    dxz    dx2    tot
  1  0.128  0.000  0.000  0.000  0.000  0.000  0.000  0.000  0.000  0.128
  2  0.465  0.000  0.000  0.000  0.000  0.000  0.000  0.000  0.000  0.465
tot  0.593  0.000  0.000  0.000  0.000  0.000  0.000  0.000  0.000  0.593
 
band   7 # energy    2.14988798 # occ.  2.00000000
 
ion      s     py     pz     px    dxy    dyz    dz2    dxz    dx2    tot
  1  0.552  0.000  0.000  0.000  0.000  0.000  0.000  0.000  0.000  0.552
  2  0.288  0.000  0.000  0.000  0.000  0.000  0.000  0.000  0.000  0.288
tot  0.840  0.000  0.000  0.000  0.000  0.000  0.000  0.000  0.000  0.840
 
band   8 # energy    4.73643632 # occ.  2.00000000
 
ion      s     py     pz     px    dxy    dyz    dz2    dxz    dx2    tot
  1  0.000  0.035  0.038  0.056  0.000  0.000  0.000  0.000  0.000  0.130
  2  0.000  0.111  0.121  0.175  0.000  0.000  0.000  0.000  0.000  0.407
tot  0.000  0.147  0.159  0.231  0.000  0.000  0.000  0.000  0.000  0.537
 
band   9 # energy    4.73643632 # occ.  2.00000000
 
ion      s     py     pz     px    dxy    dyz    dz2    dxz    dx2    tot
  1  0.000  0.051  0.048  0.031  0.000  0.000  0.000  0.000  0.000  0.130
  2  0.000  0.160  0.151  0.096  0.000  0.000  0.000  0.000  0.000  0.407
tot  0.000  0.211  0.199  0.127  0.000  0.000  0.000  0.000  0.000  0.537
 
band  10 # energy    4.73644304 # occ.  2.00000000
 
ion      s     py     pz     px    dxy    dyz    dz2    dxz    dx2    tot
  1  0.000  0.043  0.043  0.043  0.000  0.000  0.000  0.000  0.000  0.130
  2  0.000  0.136  0.136  0.136  0.000  0.000  0.000  0.000  0.000  0.407
tot  0.000  0.179  0.179  0.179  0.000  0.000  0.000  0.000  0.000  0.537
 
band  11 # energy   10.19260872 # occ.  0.00000000
 
ion      s     py     pz     px    dxy    dyz    dz2    dxz    dx2    tot
  1  0.000  0.159  0.018  0.264  0.000  0.000  0.000  0.000  0.000  0.441
  2  0.000  0.049  0.006  0.082  0.000  0.000  0.000  0.000  0.000  0.137
tot  0.000  0.209  0.023  0.346  0.000  0.000  0.000  0.000  0.000  0.578
 
band  12 # energy   10.19260878 # occ.  0.00000000
 
ion      s     py     pz     px    dxy    dyz    dz2    dxz    dx2    tot
  1  0.000  0.135  0.276  0.030  0.000  0.000  0.000  0.000  0.000  0.441
  2  0.000  0.042  0.086  0.009  0.000  0.000  0.000  0.000  0.000  0.137
tot  0.000  0.177  0.362  0.040  0.000  0.000  0.000  0.000  0.000  0.578
 
band  13 # energy   10.19263538 # occ.  0.00000000
 
ion      s     py     pz     px    dxy    dyz    dz2    dxz    dx2    tot
  1  0.000  0.147  0.147  0.147  0.000  0.000  0.000  0.000  0.000  0.441
  2  0.000  0.046  0.046  0.046  0.000  0.000  0.000  0.000  0.000  0.137
tot  0.000  0.192  0.193  0.193  0.000  0.000  0.000  0.000  0.000  0.578
 
band  14 # energy   11.62586576 # occ.  0.00000000
 
ion      s     py     pz     px    dxy    dyz    dz2    dxz    dx2    tot
  1  0.000  0.000  0.000  0.000  0.036  0.036  0.000  0.036  0.000  0.108
  2  0.000  0.000  0.000  0.000  0.039  0.039  0.000  0.039  0.000  0.118
tot  0.000  0.000  0.000  0.000  0.075  0.075  0.000  0.075  0.000  0.226
 
band  15 # energy   11.62587607 # occ.  0.00000000
 
ion      s     py     pz     px    dxy    dyz    dz2    dxz    dx2    tot
  1  0.000  0.000  0.000  0.000  0.057  0.023  0.000  0.028  0.000  0.108
  2  0.000  0.000  0.000  0.000  0.062  0.025  0.000  0.031  0.000  0.118
tot  0.000  0.000  0.000  0.000  0.119  0.048  0.000  0.059  0.000  0.226
 
band  16 # energy   11.62587615 # occ.  0.00000000
 
ion      s     py     pz     px    dxy    dyz    dz2    dxz    dx2    tot
  1  0.000  0.000  0.000  0.000  0.015  0.049  0.000  0.044  0.000  0.108
  2  0.000  0.000  0.000  0.000  0.016  0.054  0.000  0.048  0.000  0.118
tot  0.000  0.000  0.000  0.000  0.031  0.103  0.000  0.092  0.000  0.226
 

 k-point    2 :    0.02631579 0.00000000 0.02631579     weight = 0.00833333

band   1 # energy  -15.01563568 # occ.  2.00000000
 
ion      s     py     pz     px    dxy    dyz    dz2    dxz    dx2    tot
  1  0.000  0.000  0.000  0.000  0.000  0.000  0.247  0.000  0.742  0.990
  2  0.000  0.000  0.000  0.000  0.000  0.000  0.000  0.000  0.000  0.000
tot  0.000  0.000  0.000  0.000  0.000  0.000  0.248  0.000  0.743  0.990
 
band   2 # energy  -15.01550499 # occ.  2.00000000
 
ion      s     py     pz     px    dxy    dyz    dz2    dxz    dx2    tot
  1  0.000  0.000  0.000  0.000  0.000  0.000  0.742  0.000  0.247  0.990
  2  0.000  0.000  0.000  0.000  0.000  0.000  0.000  0.000  0.000  0.000
tot  0.000  0.000  0.000  0.000  0.000  0.000  0.743  0.000  0.248  0.990
 
band   3 # energy  -15.01129862 # occ.  2.00000000
 
ion      s     py     pz     px    dxy    dyz    dz2    dxz    dx2    tot
  1  0.000  0.000  0.000  0.000  0.461  0.461  0.000  0.068  0.000  0.990
  2  0.000  0.000  0.000  0.000  0.000  0.000  0.000  0.000  0.000  0.000
tot  0.000  0.000  0.000  0.000  0.461  0.461  0.000  0.068  0.000  0.990
 
band   4 # energy  -15.01129118 # occ.  2.00000000
 
ion      s     py     pz     px    dxy    dyz    dz2    dxz    dx2    tot
  1  0.000  0.000  0.000  0.000  0.495  0.495  0.000  0.000  0.000  0.990
  2  0.000  0.000  0.000  0.000  0.000  0.000  0.000  0.000  0.000  0.000
tot  0.000  0.000  0.000  0.000  0.495  0.495  0.000  0.000  0.000  0.990
 
band   5 # energy  -15.01128123 # occ.  2.00000000
 
ion      s     py     pz     px    dxy    dyz    dz2    dxz    dx2    tot
  1  0.000  0.000  0.000  0.000  0.034  0.034  0.000  0.922  0.000  0.990
  2  0.000  0.000  0.000  0.000  0.000  0.000  0.000  0.000  0.000  0.000
tot  0.000  0.000  0.000  0.000  0.034  0.034  0.000  0.922  0.000  0.990
 
band   6 # energy   -5.87922184 # occ.  2.00000000
 
ion      s     py     pz     px    dxy    dyz    dz2    dxz    dx2    tot
  1  0.127  0.000  0.000  0.000  0.000  0.000  0.000  0.000  0.000  0.127
  2  0.466  0.000  0.000  0.000  0.000  0.000  0.000  0.000  0.000  0.466
tot  0.593  0.000  0.000  0.000  0.000  0.000  0.000  0.000  0.000  0.593
 
band   7 # energy    2.10035844 # occ.  2.00000000
 
ion      s     py     pz     px    dxy    dyz    dz2    dxz    dx2    tot
  1  0.543  0.001  0.000  0.000  0.000  0.000  0.000  0.000  0.000  0.544
  2  0.283  0.006  0.000  0.000  0.000  0.000  0.000  0.000  0.000  0.288
tot  0.825  0.007  0.000  0.000  0.000  0.000  0.000  0.000  0.000  0.833
 
band   8 # energy    4.72165994 # occ.  2.00000000
 
ion      s     py     pz     px    dxy    dyz    dz2    dxz    dx2    tot
  1  0.000  0.000  0.065  0.065  0.000  0.000  0.000  0.000  0.000  0.130
  2  0.000  0.000  0.203  0.203  0.000  0.000  0.000  0.000  0.000  0.405
tot  0.000  0.000  0.268  0.268  0.000  0.000  0.000  0.000  0.000  0.536
 
band   9 # energy    4.72166440 # occ.  2.00000000
 
ion      s     py     pz     px    dxy    dyz    dz2    dxz    dx2    tot
  1  0.000  0.000  0.065  0.065  0.000  0.000  0.000  0.000  0.000  0.130
  2  0.000  0.000  0.203  0.203  0.000  0.000  0.000  0.000  0.000  0.405
tot  0.000  0.000  0.268  0.268  0.000  0.000  0.000  0.000  0.000  0.536
 
band  10 # energy    4.80575993 # occ.  2.00000000
 
ion      s     py     pz     px    dxy    dyz    dz2    dxz    dx2    tot
  1  0.010  0.126  0.000  0.000  0.000  0.000  0.000  0.000  0.000  0.136
  2  0.005  0.403  0.000  0.000  0.000  0.000  0.000  0.000  0.000  0.408
tot  0.014  0.530  0.000  0.000  0.000  0.000  0.000  0.000  0.000  0.544
 
band  11 # energy   10.04687986 # occ.  0.00000000
 
ion      s     py     pz     px    dxy    dyz    dz2    dxz    dx2    tot
  1  0.003  0.429  0.000  0.000  0.000  0.000  0.001  0.000  0.002  0.434
  2  0.002  0.128  0.000  0.000  0.000  0.000  0.001  0.000  0.003  0.134
tot  0.004  0.557  0.000  0.000  0.000  0.000  0.002  0.000  0.005  0.569
 
band  12 # energy   10.19268454 # occ.  0.00000000
 
ion      s     py     pz     px    dxy    dyz    dz2    dxz    dx2    tot
  1  0.000  0.000  0.218  0.218  0.000  0.000  0.000  0.000  0.000  0.437
  2  0.000  0.000  0.069  0.069  0.000  0.000  0.000  0.000  0.000  0.139
tot  0.000  0.000  0.288  0.287  0.001  0.001  0.000  0.000  0.000  0.576
 
band  13 # energy   10.19270202 # occ.  0.00000000
 
ion      s     py     pz     px    dxy    dyz    dz2    dxz    dx2    tot
  1  0.000  0.000  0.218  0.218  0.000  0.000  0.000  0.000  0.000  0.437
  2  0.000  0.000  0.069  0.069  0.000  0.000  0.000  0.000  0.000  0.139
tot  0.000  0.000  0.287  0.288  0.001  0.001  0.000  0.000  0.000  0.576
 
band  14 # energy   11.57190206 # occ.  0.00000000
 
ion      s     py     pz     px    dxy    dyz    dz2    dxz    dx2    tot
  1  0.000  0.000  0.000  0.000  0.000  0.000  0.000  0.105  0.000  0.105
  2  0.000  0.000  0.000  0.000  0.000  0.000  0.000  0.115  0.000  0.115
tot  0.000  0.000  0.000  0.000  0.000  0.000  0.000  0.220  0.000  0.220
 
band  15 # energy   11.66848385 # occ.  0.00000000
 
ion      s     py     pz     px    dxy    dyz    dz2    dxz    dx2    tot
  1  0.000  0.000  0.002  0.002  0.054  0.053  0.000  0.000  0.000  0.112
  2  0.000  0.000  0.000  0.000  0.059  0.058  0.000  0.000  0.000  0.117
tot  0.000  0.000  0.002  0.002  0.113  0.112  0.000  0.000  0.000  0.229
 
band  16 # energy   11.66849036 # occ.  0.00000000
 
ion      s     py     pz     px    dxy    dyz    dz2    dxz    dx2    tot
  1  0.000  0.000  0.002  0.002  0.053  0.054  0.000  0.000  0.000  0.112
  2  0.000  0.000  0.000  0.000  0.058  0.059  0.000  0.000  0.000  0.117
tot  0.000  0.000  0.002  0.002  0.112  0.113  0.000  0.000  0.000  0.229
 

 k-point    3 :    0.05263158 0.00000000 0.05263158     weight = 0.00833333

band   1 # energy  -15.01592779 # occ.  2.00000000
 
ion      s     py     pz     px    dxy    dyz    dz2    dxz    dx2    tot
  1  0.000  0.000  0.000  0.000  0.000  0.000  0.247  0.000  0.742  0.990
  2  0.000  0.000  0.000  0.000  0.000  0.000  0.000  0.000  0.000  0.000
tot  0.000  0.000  0.000  0.000  0.000  0.000  0.248  0.000  0.743  0.990
 
band   2 # energy  -15.01541276 # occ.  2.00000000
 
ion      s     py     pz     px    dxy    dyz    dz2    dxz    dx2    tot
  1  0.000  0.000  0.000  0.000  0.000  0.000  0.742  0.000  0.247  0.990
  2  0.000  0.000  0.000  0.000  0.000  0.000  0.000  0.000  0.000  0.000
tot  0.000  0.000  0.000  0.000  0.000  0.000  0.743  0.000  0.248  0.990
 
band   3 # energy  -15.01135902 # occ.  2.00000000
 
ion      s     py     pz     px    dxy    dyz    dz2    dxz    dx2    tot
  1  0.000  0.000  0.000  0.000  0.000  0.000  0.000  0.990  0.000  0.990
  2  0.000  0.000  0.000  0.000  0.000  0.000  0.000  0.000  0.000  0.000
tot  0.000  0.000  0.000  0.000  0.000  0.000  0.000  0.990  0.000  0.990
 
band   4 # energy  -15.01109794 # occ.  2.00000000
 
ion      s     py     pz     px    dxy    dyz    dz2    dxz    dx2    tot
  1  0.000  0.000  0.000  0.000  0.495  0.495  0.000  0.000  0.000  0.990
  2  0.000  0.000  0.000  0.000  0.000  0.000  0.000  0.000  0.000  0.000
tot  0.000  0.000  0.000  0.000  0.495  0.495  0.000  0.000  0.000  0.990
 
band   5 # energy  -15.01109178 # occ.  2.00000000
 
ion      s     py     pz     px    dxy    dyz    dz2    dxz    dx2    tot
  1  0.000  0.000  0.000  0.000  0.495  0.495  0.000  0.000  0.000  0.990
  2  0.000  0.000  0.000  0.000  0.000  0.000  0.000  0.000  0.000  0.000
tot  0.000  0.000  0.000  0.000  0.495  0.495  0.000  0.000  0.000  0.990
 
band   6 # energy   -5.85593801 # occ.  2.00000000
 
ion      s     py     pz     px    dxy    dyz    dz2    dxz    dx2    tot
  1  0.126  0.001  0.000  0.000  0.000  0.000  0.000  0.000  0.000  0.126
  2  0.468  0.000  0.000  0.000  0.000  0.000  0.000  0.000  0.000  0.468
tot  0.593  0.001  0.000  0.000  0.000  0.000  0.000  0.000  0.000  0.594
 
band   7 # energy    1.96653516 # occ.  2.00000000
 
ion      s     py     pz     px    dxy    dyz    dz2    dxz    dx2    tot
  1  0.523  0.004  0.000  0.000  0.000  0.000  0.000  0.000  0.000  0.527
  2  0.269  0.019  0.000  0.000  0.000  0.000  0.000  0.000  0.000  0.288
tot  0.792  0.023  0.000  0.000  0.000  0.000  0.000  0.000  0.000  0.815
 
band   8 # energy    4.67827198 # occ.  2.00000000
 
ion      s     py     pz     px    dxy    dyz    dz2    dxz    dx2    tot
  1  0.000  0.000  0.066  0.066  0.000  0.000  0.000  0.000  0.000  0.132
  2  0.000  0.000  0.200  0.201  0.000  0.000  0.000  0.000  0.000  0.401
tot  0.000  0.000  0.266  0.266  0.000  0.000  0.000  0.000  0.000  0.533
 
band   9 # energy    4.67827640 # occ.  2.00000000
 
ion      s     py     pz     px    dxy    dyz    dz2    dxz    dx2    tot
  1  0.000  0.000  0.066  0.066  0.000  0.000  0.000  0.000  0.000  0.132
  2  0.000  0.000  0.201  0.200  0.000  0.000  0.000  0.000  0.000  0.401
tot  0.000  0.000  0.266  0.266  0.000  0.000  0.000  0.000  0.000  0.533
 
band  10 # energy    4.99751932 # occ.  2.00000000
 
ion      s     py     pz     px    dxy    dyz    dz2    dxz    dx2    tot
  1  0.032  0.117  0.000  0.000  0.000  0.000  0.000  0.000  0.001  0.150
  2  0.016  0.397  0.000  0.000  0.000  0.000  0.000  0.000  0.000  0.413
tot  0.047  0.514  0.000  0.000  0.000  0.000  0.000  0.000  0.001  0.563
 
band  11 # energy    9.67182860 # occ.  0.00000000
 
ion      s     py     pz     px    dxy    dyz    dz2    dxz    dx2    tot
  1  0.008  0.406  0.000  0.000  0.000  0.000  0.002  0.000  0.006  0.423
  2  0.005  0.109  0.000  0.000  0.000  0.000  0.003  0.000  0.009  0.126
tot  0.013  0.515  0.000  0.000  0.000  0.000  0.005  0.000  0.015  0.549
 
band  12 # energy   10.19566544 # occ.  0.00000000
 
ion      s     py     pz     px    dxy    dyz    dz2    dxz    dx2    tot
  1  0.000  0.000  0.211  0.214  0.000  0.000  0.000  0.000  0.000  0.425
  2  0.000  0.000  0.071  0.072  0.002  0.002  0.000  0.000  0.000  0.146
tot  0.000  0.000  0.282  0.286  0.002  0.002  0.000  0.000  0.000  0.572
 
band  13 # energy   10.19568245 # occ.  0.00000000
 
ion      s     py     pz     px    dxy    dyz    dz2    dxz    dx2    tot
  1  0.000  0.000  0.214  0.211  0.000  0.000  0.000  0.000  0.000  0.425
  2  0.000  0.000  0.072  0.071  0.002  0.002  0.000  0.000  0.000  0.146
tot  0.000  0.000  0.286  0.282  0.002  0.002  0.000  0.000  0.000  0.572
 
band  14 # energy   11.42898733 # occ.  0.00000000
 
ion      s     py     pz     px    dxy    dyz    dz2    dxz    dx2    tot
  1  0.000  0.000  0.000  0.000  0.000  0.000  0.000  0.100  0.000  0.100
  2  0.000  0.000  0.000  0.000  0.000  0.000  0.000  0.107  0.000  0.107
tot  0.000  0.000  0.000  0.000  0.000  0.000  0.000  0.207  0.000  0.207
 
band  15 # energy   11.79263704 # occ.  0.00000000
 
ion      s     py     pz     px    dxy    dyz    dz2    dxz    dx2    tot
  1  0.000  0.000  0.007  0.009  0.060  0.046  0.000  0.000  0.000  0.122
  2  0.000  0.000  0.000  0.000  0.065  0.050  0.000  0.000  0.000  0.116
tot  0.000  0.000  0.007  0.009  0.126  0.096  0.000  0.000  0.000  0.238
 
band  16 # energy   11.79264271 # occ.  0.00000000
 
ion      s     py     pz     px    dxy    dyz    dz2    dxz    dx2    tot
  1  0.000  0.000  0.009  0.007  0.046  0.060  0.000  0.000  0.000  0.122
  2  0.000  0.000  0.000  0.000  0.050  0.065  0.000  0.000  0.000  0.116
tot  0.000  0.000  0.009  0.007  0.096  0.126  0.000  0.000  0.000  0.238
 

 k-point    4 :    0.07894737 0.00000000 0.07894737     weight = 0.00833333

band   1 # energy  -15.01641473 # occ.  2.00000000
 
ion      s     py     pz     px    dxy    dyz    dz2    dxz    dx2    tot
  1  0.000  0.000  0.000  0.000  0.000  0.000  0.247  0.000  0.742  0.990
  2  0.000  0.000  0.000  0.000  0.000  0.000  0.000  0.000  0.000  0.000
tot  0.000  0.000  0.000  0.000  0.000  0.000  0.247  0.000  0.742  0.990
 
band   2 # energy  -15.01525803 # occ.  2.00000000
 
ion      s     py     pz     px    dxy    dyz    dz2    dxz    dx2    tot
  1  0.000  0.000  0.000  0.000  0.000  0.000  0.742  0.000  0.247  0.990
  2  0.000  0.000  0.000  0.000  0.000  0.000  0.000  0.000  0.000  0.000
tot  0.000  0.000  0.000  0.000  0.000  0.000  0.743  0.000  0.248  0.990
 
band   3 # energy  -15.01148545 # occ.  2.00000000
 
ion      s     py     pz     px    dxy    dyz    dz2    dxz    dx2    tot
  1  0.000  0.000  0.000  0.000  0.000  0.000  0.000  0.990  0.000  0.990
  2  0.000  0.000  0.000  0.000  0.000  0.000  0.000  0.000  0.000  0.000
tot  0.000  0.000  0.000  0.000  0.000  0.000  0.000  0.990  0.000  0.990
 
band   4 # energy  -15.01077127 # occ.  2.00000000
 
ion      s     py     pz     px    dxy    dyz    dz2    dxz    dx2    tot
  1  0.000  0.000  0.000  0.000  0.495  0.495  0.000  0.000  0.000  0.990
  2  0.000  0.000  0.000  0.000  0.000  0.000  0.000  0.000  0.000  0.000
tot  0.000  0.000  0.000  0.000  0.495  0.495  0.000  0.000  0.000  0.991
 
band   5 # energy  -15.01076505 # occ.  2.00000000
 
ion      s     py     pz     px    dxy    dyz    dz2    dxz    dx2    tot
  1  0.000  0.000  0.000  0.000  0.495  0.495  0.000  0.000  0.000  0.990
  2  0.000  0.000  0.000  0.000  0.000  0.000  0.000  0.000  0.000  0.000
tot  0.000  0.000  0.000  0.000  0.495  0.495  0.000  0.000  0.000  0.991
 
band   6 # energy   -5.81731998 # occ.  2.00000000
 
ion      s     py     pz     px    dxy    dyz    dz2    dxz    dx2    tot
  1  0.124  0.001  0.000  0.000  0.000  0.000  0.000  0.000  0.000  0.125
  2  0.470  0.000  0.000  0.000  0.000  0.000  0.000  0.000  0.000  0.471
tot  0.594  0.002  0.000  0.000  0.000  0.000  0.000  0.000  0.000  0.596
 
band   7 # energy    1.77928610 # occ.  2.00000000
 
ion      s     py     pz     px    dxy    dyz    dz2    dxz    dx2    tot
  1  0.502  0.007  0.000  0.000  0.000  0.000  0.000  0.000  0.000  0.509
  2  0.254  0.032  0.000  0.000  0.000  0.000  0.000  0.000  0.000  0.286
tot  0.755  0.039  0.000  0.000  0.000  0.000  0.000  0.000  0.000  0.794
 
band   8 # energy    4.60890911 # occ.  2.00000000
 
ion      s     py     pz     px    dxy    dyz    dz2    dxz    dx2    tot
  1  0.000  0.000  0.066  0.067  0.000  0.000  0.000  0.000  0.000  0.134
  2  0.000  0.000  0.196  0.197  0.000  0.000  0.000  0.000  0.000  0.394
tot  0.000  0.000  0.263  0.264  0.001  0.001  0.000  0.000  0.000  0.528
 
band   9 # energy    4.60891348 # occ.  2.00000000
 
ion      s     py     pz     px    dxy    dyz    dz2    dxz    dx2    tot
  1  0.000  0.000  0.067  0.066  0.000  0.000  0.000  0.000  0.000  0.134
  2  0.000  0.000  0.197  0.196  0.000  0.000  0.000  0.000  0.000  0.394
tot  0.000  0.000  0.264  0.263  0.001  0.001  0.000  0.000  0.000  0.528
 
band  10 # energy    5.27546887 # occ.  2.00000000
 
ion      s     py     pz     px    dxy    dyz    dz2    dxz    dx2    tot
  1  0.057  0.102  0.000  0.000  0.000  0.000  0.001  0.000  0.003  0.162
  2  0.026  0.397  0.000  0.000  0.000  0.000  0.000  0.000  0.000  0.422
tot  0.083  0.498  0.000  0.000  0.000  0.000  0.001  0.000  0.003  0.584
 
band  11 # energy    9.17673237 # occ.  0.00000000
 
ion      s     py     pz     px    dxy    dyz    dz2    dxz    dx2    tot
  1  0.013  0.393  0.000  0.000  0.000  0.000  0.003  0.000  0.009  0.417
  2  0.010  0.085  0.000  0.000  0.000  0.000  0.005  0.000  0.014  0.113
tot  0.023  0.478  0.000  0.000  0.000  0.000  0.007  0.000  0.022  0.530
 
band  12 # energy   10.20755486 # occ.  0.00000000
 
ion      s     py     pz     px    dxy    dyz    dz2    dxz    dx2    tot
  1  0.000  0.000  0.205  0.205  0.001  0.001  0.000  0.000  0.000  0.411
  2  0.000  0.000  0.075  0.075  0.003  0.003  0.000  0.000  0.000  0.156
tot  0.000  0.000  0.280  0.280  0.003  0.003  0.000  0.000  0.000  0.567
 
band  13 # energy   10.20757100 # occ.  0.00000000
 
ion      s     py     pz     px    dxy    dyz    dz2    dxz    dx2    tot
  1  0.000  0.000  0.205  0.205  0.001  0.001  0.000  0.000  0.000  0.411
  2  0.000  0.000  0.075  0.075  0.003  0.003  0.000  0.000  0.000  0.156
tot  0.000  0.000  0.280  0.280  0.003  0.003  0.000  0.000  0.000  0.567
 
band  14 # energy   11.23360756 # occ.  0.00000000
 
ion      s     py     pz     px    dxy    dyz    dz2    dxz    dx2    tot
  1  0.000  0.000  0.000  0.000  0.000  0.000  0.000  0.094  0.000  0.094
  2  0.000  0.000  0.000  0.000  0.000  0.000  0.000  0.099  0.000  0.099
tot  0.000  0.000  0.000  0.000  0.000  0.000  0.000  0.194  0.000  0.194
 
band  15 # energy   11.98928699 # occ.  0.00000000
 
ion      s     py     pz     px    dxy    dyz    dz2    dxz    dx2    tot
  1  0.000  0.000  0.016  0.014  0.049  0.056  0.000  0.000  0.000  0.135
  2  0.000  0.000  0.000  0.000  0.053  0.061  0.000  0.000  0.000  0.114
tot  0.000  0.000  0.016  0.014  0.102  0.117  0.000  0.000  0.000  0.249
 
band  16 # energy   11.98929143 # occ.  0.00000000
 
ion      s     py     pz     px    dxy    dyz    dz2    dxz    dx2    tot
  1  0.000  0.000  0.014  0.016  0.056  0.049  0.000  0.000  0.000  0.135
  2  0.000  0.000  0.000  0.000  0.061  0.053  0.000  0.000  0.000  0.114
tot  0.000  0.000  0.014  0.016  0.117  0.102  0.000  0.000  0.000  0.249
 

 k-point    5 :    0.10526316 0.00000000 0.10526316     weight = 0.00833333

band   1 # energy  -15.01727597 # occ.  2.00000000
 
ion      s     py     pz     px    dxy    dyz    dz2    dxz    dx2    tot
  1  0.000  0.000  0.000  0.000  0.000  0.000  0.247  0.000  0.742  0.990
  2  0.000  0.000  0.000  0.000  0.000  0.000  0.000  0.000  0.000  0.000
tot  0.000  0.000  0.000  0.000  0.000  0.000  0.247  0.000  0.742  0.990
 
band   2 # energy  -15.01504775 # occ.  2.00000000
 
ion      s     py     pz     px    dxy    dyz    dz2    dxz    dx2    tot
  1  0.000  0.000  0.000  0.000  0.000  0.000  0.743  0.000  0.248  0.990
  2  0.000  0.000  0.000  0.000  0.000  0.000  0.000  0.000  0.000  0.000
tot  0.000  0.000  0.000  0.000  0.000  0.000  0.743  0.000  0.248  0.990
 
band   3 # energy  -15.01165903 # occ.  2.00000000
 
ion      s     py     pz     px    dxy    dyz    dz2    dxz    dx2    tot
  1  0.000  0.000  0.000  0.000  0.000  0.000  0.000  0.990  0.000  0.990
  2  0.000  0.000  0.000  0.000  0.000  0.000  0.000  0.000  0.000  0.000
tot  0.000  0.000  0.000  0.000  0.000  0.000  0.000  0.990  0.000  0.990
 
band   4 # energy  -15.01033300 # occ.  2.00000000
 
ion      s     py     pz     px    dxy    dyz    dz2    dxz    dx2    tot
  1  0.000  0.000  0.000  0.000  0.495  0.495  0.000  0.000  0.000  0.991
  2  0.000  0.000  0.000  0.000  0.000  0.000  0.000  0.000  0.000  0.000
tot  0.000  0.000  0.000  0.000  0.495  0.495  0.000  0.000  0.000  0.991
 
band   5 # energy  -15.01032678 # occ.  2.00000000
 
ion      s     py     pz     px    dxy    dyz    dz2    dxz    dx2    tot
  1  0.000  0.000  0.000  0.000  0.495  0.495  0.000  0.000  0.000  0.991
  2  0.000  0.000  0.000  0.000  0.000  0.000  0.000  0.000  0.000  0.000
tot  0.000  0.000  0.000  0.000  0.495  0.495  0.000  0.000  0.000  0.991
 
band   6 # energy   -5.76375787 # occ.  2.00000000
 
ion      s     py     pz     px    dxy    dyz    dz2    dxz    dx2    tot
  1  0.121  0.002  0.000  0.000  0.000  0.000  0.000  0.000  0.000  0.123
  2  0.474  0.001  0.000  0.000  0.000  0.000  0.000  0.000  0.000  0.475
tot  0.595  0.003  0.000  0.000  0.000  0.000  0.000  0.000  0.000  0.598
 
band   7 # energy    1.56648477 # occ.  2.00000000
 
ion      s     py     pz     px    dxy    dyz    dz2    dxz    dx2    tot
  1  0.485  0.008  0.000  0.000  0.000  0.000  0.000  0.000  0.000  0.494
  2  0.240  0.043  0.000  0.000  0.000  0.000  0.000  0.000  0.000  0.282
tot  0.725  0.050  0.000  0.000  0.000  0.000  0.000  0.000  0.001  0.776
 
band   8 # energy    4.51754077 # occ.  2.00000000
 
ion      s     py     pz     px    dxy    dyz    dz2    dxz    dx2    tot
  1  0.000  0.000  0.067  0.067  0.001  0.001  0.000  0.000  0.000  0.136
  2  0.000  0.000  0.193  0.193  0.000  0.000  0.000  0.000  0.000  0.386
tot  0.000  0.000  0.260  0.260  0.001  0.001  0.000  0.000  0.000  0.522
 
band   9 # energy    4.51754506 # occ.  2.00000000
 
ion      s     py     pz     px    dxy    dyz    dz2    dxz    dx2    tot
  1  0.000  0.000  0.067  0.067  0.001  0.001  0.000  0.000  0.000  0.136
  2  0.000  0.000  0.193  0.193  0.000  0.000  0.000  0.000  0.000  0.386
tot  0.000  0.000  0.260  0.260  0.001  0.001  0.000  0.000  0.000  0.522
 
band  10 # energy    5.59799201 # occ.  2.00000000
 
ion      s     py     pz     px    dxy    dyz    dz2    dxz    dx2    tot
  1  0.081  0.078  0.000  0.000  0.000  0.000  0.002  0.000  0.005  0.165
  2  0.031  0.407  0.000  0.000  0.000  0.000  0.000  0.000  0.000  0.439
tot  0.112  0.485  0.000  0.000  0.000  0.000  0.002  0.000  0.005  0.604
 
band  11 # energy    8.64595139 # occ.  0.00000000
 
ion      s     py     pz     px    dxy    dyz    dz2    dxz    dx2    tot
  1  0.014  0.396  0.000  0.000  0.000  0.000  0.003  0.000  0.009  0.422
  2  0.016  0.056  0.000  0.000  0.000  0.000  0.006  0.000  0.017  0.094
tot  0.030  0.452  0.000  0.000  0.000  0.000  0.008  0.000  0.025  0.516
 
band  12 # energy   10.23413550 # occ.  0.00000000
 
ion      s     py     pz     px    dxy    dyz    dz2    dxz    dx2    tot
  1  0.000  0.000  0.198  0.198  0.001  0.001  0.000  0.000  0.000  0.397
  2  0.000  0.000  0.080  0.080  0.004  0.004  0.000  0.000  0.000  0.167
tot  0.000  0.000  0.278  0.278  0.005  0.005  0.000  0.000  0.000  0.564
 
band  13 # energy   10.23415066 # occ.  0.00000000
 
ion      s     py     pz     px    dxy    dyz    dz2    dxz    dx2    tot
  1  0.000  0.000  0.198  0.198  0.001  0.001  0.000  0.000  0.000  0.397
  2  0.000  0.000  0.080  0.080  0.004  0.004  0.000  0.000  0.000  0.167
tot  0.000  0.000  0.278  0.278  0.005  0.005  0.000  0.000  0.000  0.564
 
band  14 # energy   11.01472963 # occ.  0.00000000
 
ion      s     py     pz     px    dxy    dyz    dz2    dxz    dx2    tot
  1  0.000  0.000  0.000  0.000  0.000  0.000  0.000  0.090  0.000  0.090
  2  0.000  0.000  0.000  0.000  0.000  0.000  0.000  0.093  0.000  0.093
tot  0.000  0.000  0.000  0.000  0.000  0.000  0.000  0.183  0.000  0.183
 
band  15 # energy   12.24811897 # occ.  0.00000000
 
ion      s     py     pz     px    dxy    dyz    dz2    dxz    dx2    tot
  1  0.000  0.000  0.021  0.020  0.051  0.054  0.000  0.000  0.000  0.146
  2  0.000  0.000  0.000  0.000  0.055  0.058  0.000  0.000  0.000  0.113
tot  0.000  0.000  0.021  0.020  0.107  0.111  0.000  0.000  0.000  0.260
 
band  16 # energy   12.24812244 # occ.  0.00000000
 
ion      s     py     pz     px    dxy    dyz    dz2    dxz    dx2    tot
  1  0.000  0.000  0.020  0.021  0.054  0.051  0.000  0.000  0.000  0.146
  2  0.000  0.000  0.000  0.000  0.058  0.055  0.000  0.000  0.000  0.113
tot  0.000  0.000  0.020  0.021  0.111  0.107  0.000  0.000  0.000  0.260
 

 k-point    6 :    0.13157895 0.00000000 0.13157895     weight = 0.00833333

band   1 # energy  -15.01834527 # occ.  2.00000000
 
ion      s     py     pz     px    dxy    dyz    dz2    dxz    dx2    tot
  1  0.000  0.000  0.000  0.000  0.000  0.000  0.247  0.000  0.742  0.990
  2  0.000  0.000  0.000  0.000  0.000  0.000  0.000  0.000  0.000  0.000
tot  0.000  0.000  0.000  0.000  0.000  0.000  0.247  0.000  0.742  0.990
 
band   2 # energy  -15.01481214 # occ.  2.00000000
 
ion      s     py     pz     px    dxy    dyz    dz2    dxz    dx2    tot
  1  0.000  0.000  0.000  0.000  0.000  0.000  0.743  0.000  0.248  0.990
  2  0.000  0.000  0.000  0.000  0.000  0.000  0.000  0.000  0.000  0.000
tot  0.000  0.000  0.000  0.000  0.000  0.000  0.743  0.000  0.248  0.990
 
band   3 # energy  -15.01192979 # occ.  2.00000000
 
ion      s     py     pz     px    dxy    dyz    dz2    dxz    dx2    tot
  1  0.000  0.000  0.000  0.000  0.000  0.000  0.000  0.990  0.000  0.990
  2  0.000  0.000  0.000  0.000  0.000  0.000  0.000  0.000  0.000  0.000
tot  0.000  0.000  0.000  0.000  0.000  0.000  0.000  0.990  0.000  0.990
 
band   4 # energy  -15.01006232 # occ.  2.00000000
 
ion      s     py     pz     px    dxy    dyz    dz2    dxz    dx2    tot
  1  0.000  0.000  0.000  0.000  0.495  0.495  0.000  0.000  0.000  0.991
  2  0.000  0.000  0.000  0.000  0.000  0.000  0.000  0.000  0.000  0.000