    2    2    1    1
  0.3152455E+02  0.4467501E-09  0.4467501E-09  0.4467501E-09  0.5000000E-15
  1.000000000000000E-004
  CAR 
 unknown system                          
   20 1771   28
 
  0.3742002E-15  0.3742002E-15  0.3742002E-15  0.1450937E-04
   1      -15.619316
   2      -15.619316
   3      -15.619279
   4      -15.619279
   5      -14.583522
   6      -14.583522
   7      -14.583493
   8      -14.583493
   9      -14.580594
  10      -14.580594
  11       -5.882531
  12       -5.882531
  13        2.158466
  14        2.158466
  15        4.182066
  16        4.182066
  17        4.999692
  18        4.999692
  19        4.999696
  20        4.999696
  21        9.635425
  22        9.635425
  23       10.460237
  24       10.460238
  25       10.460255
  26       10.460256
  27       11.603743
  28       11.605278
 
  0.2439024E-01  0.3764350E-15  0.3764350E-15  0.1160749E-03
   1      -15.619414
   2      -15.619414
   3      -15.619366
   4      -15.619366
   5      -14.583715
   6      -14.583715
   7      -14.583655
   8      -14.583655
   9      -14.580695
  10      -14.580695
  11       -5.877552
  12       -5.877552
  13        2.125252
  14        2.125252
  15        4.193080
  16        4.193080
  17        5.000367
  18        5.000367
  19        5.014830
  20        5.014830
  21        9.608735
  22        9.608735
  23       10.423883
  24       10.423884
  25       10.424746
  26       10.424747
  27       11.604157
  28       11.608707
 
  0.4878049E-01  0.3677614E-15  0.3677614E-15  0.1160749E-03
   1      -15.619425
   2      -15.619425
   3      -15.619323
   4      -15.619323
   5      -14.583790
   6      -14.583790
   7      -14.583605
   8      -14.583605
   9      -14.580621
  10      -14.580621
  11       -5.862550
  12       -5.862550
  13        2.030095
  14        2.030095
  15        4.222185
  16        4.222185
  17        5.002431
  18        5.002431
  19        5.059720
  20        5.059720
  21        9.531779
  22        9.531779
  23       10.321383
  24       10.321383
  25       10.324487
  26       10.324487
  27       11.593117
  28       11.608143
 
  0.7317073E-01  0.3747003E-15  0.3747003E-15  0.1160749E-03
   1      -15.619448
   2      -15.619448
   3      -15.619247
   4      -15.619247
   5      -14.583919
   6      -14.583919
   7      -14.583518
   8      -14.583518
   9      -14.580496
  10      -14.580496
  11       -5.837623
  12       -5.837623
  13        1.883911
  14        1.883911
  15        4.260664
  16        4.260664
  17        5.005993
  18        5.005993
  19        5.132244
  20        5.132244
  21        9.412384
  22        9.412384
  23       10.167867
  24       10.167867
  25       10.173963
  26       10.173963
  27       11.578097
  28       11.589149
 
  0.9756098E-01  0.3677614E-15  0.3677614E-15  0.1160749E-03
   1      -15.619483
   2      -15.619483
   3      -15.619144
   4      -15.619144
   5      -14.584100
   6      -14.584100
   7      -14.583402
   8      -14.583402
   9      -14.580323
  10      -14.580323
  11       -5.802933
  12       -5.802933
  13        1.699283
  14        1.699283
  15        4.300699
  16        4.300699
  17        5.011234
  18        5.011234
  19        5.227923
  20        5.227923
  21        9.260588
  22        9.260588
  23        9.979742
  24        9.979742
  25        9.989170
  26        9.989171
  27       11.565697
  28       11.566204
 
  0.1219512E+00  0.3816392E-15  0.3816392E-15  0.1160749E-03
   1      -15.619537
   2      -15.619537
   3      -15.619105
   4      -15.619105
   5      -14.584402
   6      -14.584402
   7      -14.583303
   8      -14.583303
   9      -14.580224
  10      -14.580224
  11       -5.758732
  12       -5.758731
  13        1.487316
  14        1.487316
  15        4.338185
  16        4.338185
  17        5.018361
  18        5.018361
  19        5.340186
  20        5.340186
  21        9.086235
  22        9.086235
  23        9.770538
  24        9.770539
  25        9.783421
  26        9.783421
  27       11.566304
  28       11.567913
 
  0.1463415E+00  0.3747003E-15  0.3747003E-15  0.1160749E-03
   1      -15.619624
   2      -15.619624
   3      -15.619020
   4      -15.619020
   5      -14.584754
   6      -14.584754
   7      -14.583258
   8      -14.583258
   9      -14.579997
  10      -14.579997
  11       -5.705288
  12       -5.705288
  13        1.256744
  14        1.256744
  15        4.372254
  16        4.372254
  17        5.027628
  18        5.027628
  19        5.461866
  20        5.461866
  21        8.897730
  22        8.897730
  23        9.550198
  24        9.550198
  25        9.566461
  26        9.566461
  27       11.587061
  28       11.587191
 
  0.1707317E+00  0.3747003E-15  0.3747003E-15  0.1160749E-03
   1      -15.619684
   2      -15.619684
   3      -15.618826
   4      -15.618826
   5      -14.585038
   6      -14.585038
   7      -14.583067
   8      -14.583067
   9      -14.579676
  10      -14.579676
  11       -5.642996
  12       -5.642996
  13        1.014273
  14        1.014273
  15        4.403659
  16        4.403659
  17        5.039311
  18        5.039311
  19        5.586625
  20        5.586625
  21        8.701842
  22        8.701842
  23        9.325834
  24        9.325834
  25        9.345196
  26        9.345196
  27       11.633320
  28       11.633395
 
  0.1951220E+00  0.3747003E-15  0.3747003E-15  0.1160749E-03
   1      -15.619809
   2      -15.619809
   3      -15.618606
   4      -15.618606
   5      -14.585439
   6      -14.585439
   7      -14.582921
   8      -14.582921
   9      -14.579300
  10      -14.579300
  11       -5.572405
  12       -5.572405
  13        0.765066
  14        0.765066
  15        4.433540
  16        4.433540
  17        5.053600
  18        5.053600
  19        5.709710
  20        5.709710
  21        8.503741
  22        8.503741
  23        9.102424
  24        9.102424
  25        9.124315
  26        9.124315
  27       11.708659
  28       11.708665
 
  0.2195122E+00  0.4024558E-15  0.4024558E-15  0.1160749E-03
   1      -15.619919
   2      -15.619919
   3      -15.618443
   4      -15.618443
   5      -14.585828
   6      -14.585828
   7      -14.582810
   8      -14.582810
   9      -14.579017
  10      -14.579017
  11       -5.494184
  12       -5.494184
  13        0.513368
  14        0.513368
  15        4.462976
  16        4.462976
  17        5.070702
  18        5.070702
  19        5.827998
  20        5.827998
  21        8.307439
  22        8.307439
  23        8.883612
  24        8.883612
  25        8.907110
  26        8.907110
  27       11.815332
  28       11.815335
 
  0.2439024E+00  0.3885781E-15  0.3885781E-15  0.1160749E-03
   1      -15.619986
   2      -15.619986
   3      -15.618178
   4      -15.618178
   5      -14.586239
   6      -14.586239
   7      -14.582494
   8      -14.582494
   9      -14.578561
  10      -14.578561
  11       -5.409146
  12       -5.409146
  13        0.262690
  14        0.262690
  15        4.492694
  16        4.492694
  17        5.090650
  18        5.090650
  19        5.939823
  20        5.939823
  21        8.116120
  22        8.116120
  23        8.672211
  24        8.672211
  25        8.695896
  26        8.695896
  27       11.954138
  28       11.954140
 
  0.2682927E+00  0.3885781E-15  0.3885781E-15  0.1160749E-03
   1      -15.620053
   2      -15.620053
   3      -15.618003
   4      -15.618003
   5      -14.586635
   6      -14.586635
   7      -14.582258
   8      -14.582258
   9      -14.578264
  10      -14.578264
  11       -5.318376
  12       -5.318376
  13        0.016255
  14        0.016255
  15        4.523124
  16        4.523124
  17        5.113390
  18        5.113390
  19        6.044687
  20        6.044687
  21        7.932365
  22        7.932365
  23        8.470471
  24        8.470471
  25        8.492275
  26        8.492275
  27       12.124870
  28       12.124871
 
  0.2926829E+00  0.3885781E-15  0.3885781E-15  0.1160749E-03
   1      -15.620121
   2      -15.620121
   3      -15.617787
   4      -15.617787
   5      -14.586993
   6      -14.586993
   7      -14.582021
   8      -14.582021
   9      -14.577897
  10      -14.577897
  11       -5.223252
  12       -5.223252
  13       -0.222855
  14       -0.222855
  15        4.554366
  16        4.554366
  17        5.138674
  18        5.138674
  19        6.142997
  20        6.142997
  21        7.758435
  22        7.758435
  23        8.280336
  24        8.280336
  25        8.297527
  26        8.297527
  27       12.326444
  28       12.326445
 
  0.3170732E+00  0.3885781E-15  0.3885781E-15  0.1160749E-03
   1      -15.620186
   2      -15.620186
   3      -15.617581
   4      -15.617581
   5      -14.587339
   6      -14.587339
   7      -14.581793
   8      -14.581793
   9      -14.577546
  10      -14.577546
  11       -5.125514
  12       -5.125514
  13       -0.451517
  14       -0.451517
  15        4.586208
  16        4.586208
  17        5.166042
  18        5.166042
  19        6.235702
  20        6.235702
  21        7.596378
  22        7.596378
  23        8.103619
  24        8.103619
  25        8.112471
  26        8.112471
  27       12.557072
  28       12.557075
 
  0.3414634E+00  0.3885781E-15  0.3885781E-15  0.1160749E-03
   1      -15.620295
   2      -15.620295
   3      -15.617344
   4      -15.617344
   5      -14.587703
   6      -14.587703
   7      -14.581536
   8      -14.581536
   9      -14.577225
  10      -14.577225
  11       -5.027349
  12       -5.027349
  13       -0.666395
  14       -0.666395
  15        4.618139
  16        4.618139
  17        5.194794
  18        5.194794
  19        6.324030
  20        6.324030
  21        7.448217
  22        7.448217
  23        7.937794
  24        7.937794
  25        7.942135
  26        7.942135
  27       12.814368
  28       12.814372
 
  0.3658537E+00  0.4163336E-15  0.4163336E-15  0.1160749E-03
   1      -15.620350
   2      -15.620350
   3      -15.617171
   4      -15.617171
   5      -14.587997
   6      -14.587997
   7      -14.581343
   8      -14.581343
   9      -14.576925
  10      -14.576925
  11       -4.931552
  12       -4.931552
  13       -0.863802
  14       -0.863802
  15        4.649345
  16        4.649345
  17        5.223941
  18        5.223941
  19        6.409205
  20        6.409205
  21        7.316044
  22        7.316044
  23        7.774103
  24        7.774103
  25        7.797753
  26        7.797753
  27       13.095564
  28       13.095570
 
  0.3902439E+00  0.3885781E-15  0.3885781E-15  0.1160749E-03
   1      -15.620466
   2      -15.620466
   3      -15.617054
   4      -15.617054
   5      -14.588356
   6      -14.588356
   7      -14.581244
   8      -14.581244
   9      -14.576735
  10      -14.576735
  11       -4.841533
  12       -4.841533
  13       -1.039571
  14       -1.039571
  15        4.678698
  16        4.678698
  17        5.252171
  18        5.252171
  19        6.492060
  20        6.492060
  21        7.202143
  22        7.202143
  23        7.622069
  24        7.622069
  25        7.672487
  26        7.672487
  27       13.397043
  28       13.397112
 
  0.4146341E+00  0.3608225E-15  0.3608225E-15  0.1160749E-03
   1      -15.620505
   2      -15.620505
   3      -15.616885
   4      -15.616885
   5      -14.588537
   6      -14.588537
   7      -14.581099
   8      -14.581099
   9      -14.576441
  10      -14.576441
  11       -4.761300
  12       -4.761300
  13       -1.189087
  14       -1.189087
  15        4.704839
  16        4.704839
  17        5.277907
  18        5.277907
  19        6.572482
  20        6.572482
  21        7.109168
  22        7.109168
  23        7.482790
  24        7.482790
  25        7.568494
  26        7.568494
  27       13.713781
  28       13.713806
 
  0.4390244E+00  0.3330669E-15  0.3330669E-15  0.1160749E-03
   1      -15.620535
   2      -15.620535
   3      -15.616790
   4      -15.616790
   5      -14.588698
   6      -14.588698
   7      -14.580993
   8      -14.580993
   9      -14.576274
  10      -14.576274
  11       -4.695328
  12       -4.695328
  13       -1.307396
  14       -1.307396
  15        4.726275
  16        4.726275
  17        5.299401
  18        5.299401
  19        6.648178
  20        6.648178
  21        7.040404
  22        7.040404
  23        7.358556
  24        7.358556
  25        7.487940
  26        7.487940
  27       14.037081
  28       14.037102
 
  0.4634146E+00  0.3885781E-15  0.3885781E-15  0.1160749E-03
   1      -15.620511
   2      -15.620511
   3      -15.616719
   4      -15.616719
   5      -14.588783
   6      -14.588783
   7      -14.580872
   8      -14.580872
   9      -14.576109
  10      -14.576109
  11       -4.648113
  12       -4.648113
  13       -1.389691
  14       -1.389691
  15        4.741558
  16        4.741558
  17        5.314932
  18        5.314932
  19        6.712085
  20        6.712085
  21        6.999896
  22        6.999896
  23        7.255209
  24        7.255209
  25        7.432863
  26        7.432863
  27       14.346762
  28       14.346781
 
  0.4878049E+00  0.3330669E-15  0.3330669E-15  0.1160749E-03
   1      -15.620515
   2      -15.620515
   3      -15.616639
   4      -15.616639
   5      -14.588809
   6      -14.588809
   7      -14.580803
   8      -14.580803
   9      -14.575986
  10      -14.575986
  11       -4.623422
  12       -4.623422
  13       -1.431984
  14       -1.431984
  15        4.749529
  16        4.749529
  17        5.323099
  18        5.323099
  19        6.750317
  20        6.750317
  21        6.987578
  22        6.987578
  23        7.188783
  24        7.188783
  25        7.404871
  26        7.404871
  27       14.578308
  28       14.578528
 
  0.2439024E-01  0.2439024E-01  0.3747898E-15  0.8705619E-04
   1      -15.619384
   2      -15.619384
   3      -15.619328
   4      -15.619328
   5      -14.583674
   6      -14.583674
   7      -14.583584
   8      -14.583584
   9      -14.580645
  10      -14.580645
  11       -5.875880
  12       -5.875880
  13        2.114798
  14        2.114798
  15        4.195289
  16        4.195289
  17        4.986283
  18        4.986283
  19        5.035063
  20        5.035063
  21        9.596605
  22        9.596605
  23       10.372427
  24       10.372429
  25       10.459342
  26       10.459348
  27       11.572355
  28       11.623354
 
  0.4878049E-01  0.2439024E-01  0.3764350E-15  0.3482248E-03
   1      -15.619411
   2      -15.619411
   3      -15.619340
   4      -15.619340
   5      -14.583772
   6      -14.583772
   7      -14.583622
   8      -14.583622
   9      -14.580627
  10      -14.580627
  11       -5.864214
  12       -5.864214
  13        2.041972
  14        2.041972
  15        4.214439
  16        4.214439
  17        4.977615
  18        4.977615
  19        5.082619
  20        5.082619
  21        9.526931
  22        9.526931
  23       10.268081
  24       10.268082
  25       10.423588
  26       10.423588
  27       11.535192
  28       11.549605
 
  0.7317073E-01  0.2439024E-01  0.3712308E-15  0.3482248E-03
   1      -15.619411
   2      -15.619411
   3      -15.619265
   4      -15.619265
   5      -14.583852
   6      -14.583852
   7      -14.583524
   8      -14.583524
   9      -14.580499
  10      -14.580499
  11       -5.842592
  12       -5.842592
  13        1.915195
  14        1.915195
  15        4.244398
  16        4.244398
  17        4.976083
  18        4.976083
  19        5.153609
  20        5.153609
  21        9.407831
  22        9.407831
  23       10.122354
  24       10.122355
  25       10.324489
  26       10.324490
  27       11.508998
  28       11.509564
 
  0.9756098E-01  0.2439024E-01  0.3747003E-15  0.3482248E-03
   1      -15.619465
   2      -15.619465
   3      -15.619180
   4      -15.619180
   5      -14.584048
   6      -14.584048
   7      -14.583442
   8      -14.583442
   9      -14.580362
  10      -14.580362
  11       -5.811157
  12       -5.811157
  13        1.746096
  14        1.746096
  15        4.278108
  16        4.278108
  17        4.979184
  18        4.979184
  19        5.246276
  20        5.246276
  21        9.251200
  22        9.251200
  23        9.946548
  24        9.946548
  25       10.177012
  26       10.177012
  27       11.494165
  28       11.494263
 
  0.1219512E+00  0.2439024E-01  0.3677614E-15  0.3482248E-03
   1      -15.619516
   2      -15.619516
   3      -15.619149
   4      -15.619149
   5      -14.584336
   6      -14.584336
   7      -14.583355
   8      -14.583355
   9      -14.580276
  10      -14.580276
  11       -5.770138
  12       -5.770138
  13        1.545943
  14        1.545943
  15        4.310992
  16        4.310992
  17        4.985703
  18        4.985703
  19        5.355675
  20        5.355675
  21        9.069116
  22        9.069116
  23        9.750627
  24        9.750627
  25        9.996944
  26        9.996944
  27       11.493088
  28       11.493321
 
  0.1463415E+00  0.2439024E-01  0.3747003E-15  0.3482248E-03
   1      -15.619578
   2      -15.619578
   3      -15.619011
   4      -15.619011
   5      -14.584612
   6      -14.584612
   7      -14.583223
   8      -14.583223
   9      -14.580022
  10      -14.580022
  11       -5.719771
  12       -5.719771
  13        1.324061
  14        1.324061
  15        4.341425
  16        4.341425
  17        4.995145
  18        4.995145
  19        5.475392
  20        5.475392
  21        8.871756
  22        8.871756
  23        9.542621
  24        9.542621
  25        9.797118
  26        9.797118
  27       11.510152
  28       11.510166
 
  0.1707317E+00  0.2439024E-01  0.3608225E-15  0.3482248E-03
   1      -15.619707
   2      -15.619707
   3      -15.618946
   4      -15.618946
   5      -14.585011
   6      -14.585011
   7      -14.583240
   8      -14.583240
   9      -14.579852
  10      -14.579852
  11       -5.660438
  12       -5.660438
  13        1.087725
  14        1.087725
  15        4.369593
  16        4.369593
  17        5.007302
  18        5.007302
  19        5.599203
  20        5.599203
  21        8.666972
  22        8.666972
  23        9.328707
  24        9.328707
  25        9.586895
  26        9.586895
  27       11.549906
  28       11.549963
 
  0.1951220E+00  0.2439024E-01  0.3747003E-15  0.3482248E-03
   1      -15.619786
   2      -15.619786
   3      -15.618703
   4      -15.618703
   5      -14.585355
   6      -14.585355
   7      -14.583027
   8      -14.583027
   9      -14.579427
  10      -14.579427
  11       -5.592602
  12       -5.592602
  13        0.842633
  14        0.842633
  15        4.396441
  16        4.396441
  17        5.022125
  18        5.022125
  19        5.722118
  20        5.722118
  21        8.460734
  22        8.460734
  23        9.113619
  24        9.113619
  25        9.372896
  26        9.372896
  27       11.616446
  28       11.616482
 
  0.2195122E+00  0.2439024E-01  0.3885781E-15  0.3482248E-03
   1      -15.619882
   2      -15.619882
   3      -15.618493
   4      -15.618493
   5      -14.585719
   6      -14.585719
   7      -14.582859
   8      -14.582859
   9      -14.579073
  10      -14.579073
  11       -5.516925
  12       -5.516925
  13        0.593333
  14        0.593333
  15        4.422969
  16        4.422969
  17        5.039541
  18        5.039541
  19        5.840568
  20        5.840568
  21        8.257489
  22        8.257489
  23        8.900860
  24        8.900860
  25        9.159729
  26        9.159729
  27       11.712542
  28       11.712542
 
  0.2439024E+00  0.2439024E-01  0.4024558E-15  0.3482248E-03
   1      -15.619947
   2      -15.619947
   3      -15.618261
   4      -15.618261
   5      -14.586080
   6      -14.586080
   7      -14.582606
   8      -14.582606
   9      -14.578682
  10      -14.578682
  11       -5.434135
  12       -5.434135
  13        0.343614
  14        0.343614
  15        4.450022
  16        4.450022
  17        5.059450
  18        5.059450
  19        5.952363
  20        5.952363
  21        8.060744
  22        8.060744
  23        8.693163
  24        8.693163
  25        8.950709
  26        8.950709
  27       11.839748
  28       11.839749
 
  0.2682927E+00  0.2439024E-01  0.4024558E-15  0.3482248E-03
   1      -15.620024
   2      -15.620024
   3      -15.618065
   4      -15.618065
   5      -14.586503
   6      -14.586503
   7      -14.582357
   8      -14.582357
   9      -14.578338
  10      -14.578338
  11       -5.345240
  12       -5.345240
  13        0.096820
  14        0.096820
  15        4.478148
  16        4.478148
  17        5.081621
  18        5.081621
  19        6.056459
  20        6.056459
  21        7.873355
  22        7.873355
  23        8.492668
  24        8.492668
  25        8.748251
  26        8.748251
  27       11.998391
  28       11.998391
 
  0.2926829E+00  0.2439024E-01  0.3885781E-15  0.3482248E-03
   1      -15.620114
   2      -15.620114
   3      -15.617871
   4      -15.617871
   5      -14.586900
   6      -14.586900
   7      -14.582138
   8      -14.582138
   9      -14.578028
  10      -14.578028
  11       -5.251511
  12       -5.251511
  13       -0.143890
  14       -0.143890
  15        4.507611
  16        4.507611
  17        5.105704
  18        5.105704
  19        6.152671
  20        6.152671
  21        7.697868
  22        7.697868
  23        8.301206
  24        8.301206
  25        8.554267
  26        8.554267
  27       12.187814
  28       12.187815
 
  0.3170732E+00  0.2439024E-01  0.3885781E-15  0.3482248E-03
   1      -15.620175
   2      -15.620175
   3      -15.617650
   4      -15.617650
   5      -14.587236
   6      -14.587236
   7      -14.581892
   8      -14.581892
   9      -14.577660
  10      -14.577660
  11       -5.154563
  12       -5.154563
  13       -0.375378
  14       -0.375378
  15        4.538364
  16        4.538364
  17        5.131160
  18        5.131160
  19        6.241344
  20        6.241344
  21        7.536669
  22        7.536669
  23        8.120381
  24        8.120381
  25        8.370321
  26        8.370321
  27       12.406667
  28       12.406667
 
  0.3414634E+00  0.2439024E-01  0.3885781E-15  0.3482248E-03
   1      -15.620267
   2      -15.620267
   3      -15.617425
   4      -15.617425
   5      -14.587599
   6      -14.587599
   7      -14.581648
   8      -14.581648
   9      -14.577320
  10      -14.577320
  11       -5.056410
  12       -5.056410
  13       -0.594371
  14       -0.594371
  15        4.570025
  16        4.570025
  17        5.157239
  18        5.157239
  19        6.323006
  20        6.323006
  21        7.392131
  22        7.392131
  23        7.951708
  24        7.951708
  25        8.197839
  26        8.197839
  27       12.652885
  28       12.652894
 
  0.3658537E+00  0.2439024E-01  0.3885781E-15  0.3482248E-03
   1      -15.620321
   2      -15.620321
   3      -15.617233
   4      -15.617233
   5      -14.587897
   6      -14.587897
   7      -14.581432
   8      -14.581432
   9      -14.576994
  10      -14.576994
  11       -4.959639
  12       -4.959639
  13       -0.797295
  14       -0.797295
  15        4.601864
  16        4.601864
  17        5.182995
  18        5.182995
  19        6.398044
  20        6.398045
  21        7.266662
  22        7.266662
  23        7.796720
  24        7.796720
  25        8.038388
  26        8.038388
  27       12.923944
  28       12.923945
 
  0.3902439E+00  0.2439024E-01  0.3885781E-15  0.3482248E-03
   1      -15.620394
   2      -15.620394
   3      -15.617087
   4      -15.617087
   5      -14.588199
   6      -14.588199
   7      -14.581279
   8      -14.581279
   9      -14.576745
  10      -14.576745
  11       -4.867442
  12       -4.867442
  13       -0.980137
  14       -0.980137
  15        4.632761
  16        4.632761
  17        5.207311
  18        5.207311
  19        6.466413
  20        6.466413
  21        7.162560
  22        7.162560
  23        7.657032
  24        7.657032
  25        7.893935
  26        7.893935
  27       13.216707
  28       13.216708
 
  0.4146341E+00  0.2439024E-01  0.3885781E-15  0.3482248E-03
   1      -15.620438
   2      -15.620438
   3      -15.616942
   4      -15.616942
   5      -14.588415
   6      -14.588415
   7      -14.581131
   8      -14.581131
   9      -14.576491
  10      -14.576491
  11       -4.783641
  12       -4.783641
  13       -1.138420
  14       -1.138420
  15        4.661231
  16        4.661231
  17        5.229010
  18        5.229010
  19        6.527484
  20        6.527484
  21        7.081513
  22        7.081513
  23        7.534424
  24        7.534424
  25        7.767360
  26        7.767360
  27       13.527078
  28       13.527095
 
  0.4390244E+00  0.2439024E-01  0.3608225E-15  0.3482248E-03
   1      -15.620509
   2      -15.620509
   3      -15.616836
   4      -15.616836
   5      -14.588647
   6      -14.588647
   7      -14.581062
   8      -14.581062
   9      -14.576291
  10      -14.576291
  11       -4.712564
  12       -4.712564
  13       -1.267269
  14       -1.267269
  15        4.685479
  16        4.685479
  17        5.247017
  18        5.247017
  19        6.580260
  20        6.580260
  21        7.023351
  22        7.023351
  23        7.430941
  24        7.430941
  25        7.663081
  26        7.663081
  27       13.848550
  28       13.848567
 
  0.4634146E+00  0.2439024E-01  0.3330669E-15  0.3482248E-03
   1      -15.620527
   2      -15.620527
   3      -15.616765
   4      -15.616765
   5      -14.588770
   6      -14.588770
   7      -14.580975
   8      -14.580975
   9      -14.576161
  10      -14.576161
  11       -4.658759
  12       -4.658759
  13       -1.361773
  14       -1.361773
  15        4.703607
  16        4.703607
  17        5.260537
  18        5.260537
  19        6.624191
  20        6.624191
  21        6.984228
  22        6.984228
  23        7.349177
  24        7.349177
  25        7.587525
  26        7.587525
  27       14.167525
  28       14.167588
 
  0.4878049E+00  0.2439024E-01  0.3608225E-15  0.3482248E-03
   1      -15.620530
   2      -15.620530
   3      -15.616680
   4      -15.616680
   5      -14.588812
   6      -14.588812
   7      -14.580895
   8      -14.580895
   9      -14.576022
  10      -14.576022
  11       -4.626303
  12       -4.626303
  13       -1.417580
  14       -1.417580
  15        4.713914
  16        4.713914
  17        5.269116
  18        5.269116
  19        6.659449
  20        6.659449
  21        6.956504
  22        6.956504
  23        7.292638
  24        7.292638
  25        7.548133
  26        7.548133
  27       14.443961
  28       14.444009
 
 -0.4878049E+00  0.2439024E-01  0.3885781E-15  0.3482248E-03
   1      -15.620508
   2      -15.620508
   3      -15.616646
   4      -15.616646
   5      -14.588801
   6      -14.588801
   7      -14.580827
   8      -14.580827
   9      -14.575972
  10      -14.575972
  11       -4.617979
  12       -4.617979
  13       -1.431769
  14       -1.431769
  15        4.715292
  16        4.715292
  17        5.272569
  18        5.272569
  19        6.683886
  20        6.683886
  21        6.935592
  22        6.935592
  23        7.265233
  24        7.265233
  25        7.549730
  26        7.549730
  27       14.549522
  28       14.549636
 
 -0.4634146E+00  0.2439024E-01  0.3608225E-15  0.3482248E-03
   1      -15.620519
   2      -15.620519
   3      -15.616701
   4      -15.616701
   5      -14.588798
   6      -14.588798
   7      -14.580903
   8      -14.580903
   9      -14.576046
  10      -14.576046
  11       -4.634537
  12       -4.634537
  13       -1.403536
  14       -1.403536
  15        4.707555
  16        4.707555
  17        5.270831
  18        5.270831
  19        6.687495
  20        6.687495
  21        6.931078
  22        6.931078
  23        7.269281
  24        7.269281
  25        7.590830
  26        7.590830
  27       14.381105
  28       14.381311
 
 -0.4390244E+00  0.2439024E-01  0.3608225E-15  0.3482248E-03
   1      -15.620530
   2      -15.620530
   3      -15.616792
   4      -15.616792
   5      -14.588739
   6      -14.588739
   7      -14.581014
   8      -14.581014
   9      -14.576217
  10      -14.576217
  11       -4.674505
  12       -4.674505
  13       -1.334459
  14       -1.334459
  15        4.691499
  16        4.691499
  17        5.263893
  18        5.263893
  19        6.659680
  20        6.659680
  21        6.958968
  22        6.958968
  23        7.304666
  24        7.304666
  25        7.665006
  26        7.665006
  27       14.086876
  28       14.087169
 
 -0.4146341E+00  0.2439024E-01  0.3330669E-15  0.3482248E-03
   1      -15.620475
   2      -15.620475
   3      -15.616841
   4      -15.616841
   5      -14.588540
   6      -14.588540
   7      -14.581050
   8      -14.581050
   9      -14.576326
  10      -14.576326
  11       -4.734557
  12       -4.734557
  13       -1.228021
  14       -1.228021
  15        4.668674
  16        4.668674
  17        5.251910
  18        5.251910
  19        6.606609
  20        6.606609
  21        7.019281
  22        7.019281
  23        7.369767
  24        7.369767
  25        7.765110
  26        7.765110
  27       13.765776
  28       13.765884
 
 -0.3902439E+00  0.2439024E-01  0.3608225E-15  0.3482248E-03
   1      -15.620416
   2      -15.620416
   3      -15.616991
   4      -15.616991
   5      -14.588347
   6      -14.588347
   7      -14.581165
   8      -14.581165
   9      -14.576571
  10      -14.576571
  11       -4.810383
  12       -4.810383
  13       -1.088849
  14       -1.088849
  15        4.640982
  16        4.640982
  17        5.235324
  18        5.235324
  19        6.539917
  20        6.539917
  21        7.104527