 vasp.5.3.5 31Mar14 (build Apr 11 2017 15:45:08) complex                         
 executed on           sw5f90.old date 2018.07.11  16:16:50
 running on   20 total cores
 distrk:  each k-point on   20 cores,    1 groups
 distr:  one band on NCORES_PER_BAND=   5 cores,    4 groups


--------------------------------------------------------------------------------------------------------


 INCAR:
 POTCAR:    PAW_PBE Sn_d 06Sep2000                
 POTCAR:    PAW_PBE Te 08Apr2002                  
 POTCAR:    PAW_PBE Sn_d 06Sep2000                
   VRHFIN =Sn: s2p2                                                             
   LEXCH  = PE                                                                  
   EATOM  =  1893.1092 eV,  139.1396 Ry                                         
                                                                                
   TITEL  = PAW_PBE Sn_d 06Sep2000                                              
   LULTRA =        F    use ultrasoft PP ?                                      
   IUNSCR =        1    unscreen: 0-lin 1-nonlin 2-no                           
   RPACOR =    2.300    partial core radius                                     
   POMASS =  118.710; ZVAL   =   14.000    mass and valenz                      
   RCORE  =    2.500    outmost cutoff radius                                   
   RWIGS  =    2.960; RWIGS  =    1.566    wigner-seitz radius (au A)           
   ENMAX  =  241.083; ENMIN  =  180.812 eV                                      
   ICORE  =        3    local potential                                         
   LCOR   =        T    correct aug charges                                     
   LPAW   =        T    paw PP                                                  
   EAUG   =  439.825                                                            
   DEXC   =    0.000                                                            
   RMAX   =    2.560    core radius for proj-oper                               
   RAUG   =    1.300    factor for augmentation sphere                          
   RDEP   =    2.659    radius for radial grids                                 
   RDEPT  =    2.046    core radius for aug-charge                              
                                                                                
   Atomic configuration                                                         
   12 entries                                                                   
     n  l   j            E        occ.                                          
     1  0  0.50    -29007.2859   2.0000                                         
     2  0  0.50     -4378.8056   2.0000                                         
     2  1  1.50     -3930.4293   6.0000                                         
     3  0  0.50      -845.0264   2.0000                                         
     3  1  1.50      -698.5725   6.0000                                         
     3  2  2.50      -473.2839  10.0000                                         
     4  0  0.50      -133.9036   2.0000                                         
     4  1  1.50       -89.6752   6.0000                                         
     4  2  2.50       -25.8375  10.0000                                         
     5  0  0.50       -10.5484   2.0000                                         
     5  1  0.50        -3.6940   2.0000                                         
     4  3  2.50        -2.7416   0.0000                                         
   Description                                                                  
     l       E           TYP  RCUT    TYP  RCUT                                 
     2    -25.8374624     23  2.500                                             
     2     -5.4423304     23  2.500                                             
     0    -10.5483727     23  2.500                                             
     0     13.6058260     23  2.500                                             
     1     -3.6939829     23  2.500                                             
     1      1.9821976     23  2.500                                             
     3     -1.3605826      7  2.500                                             
  local pseudopotential read in
  partial core-charges read in
  partial kinetic energy density read in
  atomic valenz-charges read in
  non local Contribution for L= 2  read in
    real space projection operators read in
  non local Contribution for L= 2  read in
    real space projection operators read in
  non local Contribution for L= 0  read in
    real space projection operators read in
  non local Contribution for L= 0  read in
    real space projection operators read in
  non local Contribution for L= 1  read in
    real space projection operators read in
  non local Contribution for L= 1  read in
    real space projection operators read in
    PAW grid and wavefunctions read in
 
   number of l-projection  operators is LMAX  = 6
   number of lm-projection operators is LMMAX = 18
 
 POTCAR:    PAW_PBE Te 08Apr2002                  
   VRHFIN =Te: s2p4                                                             
   LEXCH  = PE                                                                  
   EATOM  =   223.2721 eV,   16.4100 Ry                                         
                                                                                
   TITEL  = PAW_PBE Te 08Apr2002                                                
   LULTRA =        F    use ultrasoft PP ?                                      
   IUNSCR =        1    unscreen: 0-lin 1-nonlin 2-no                           
   RPACOR =    2.200    partial core radius                                     
   POMASS =  127.600; ZVAL   =    6.000    mass and valenz                      
   RCORE  =    2.300    outmost cutoff radius                                   
   RWIGS  =    2.900; RWIGS  =    1.535    wigner-seitz radius (au A)           
   ENMAX  =  174.982; ENMIN  =  131.236 eV                                      
   ICORE  =        3    local potential                                         
   LCOR   =        T    correct aug charges                                     
   LPAW   =        T    paw PP                                                  
   EAUG   =  368.792                                                            
   DEXC   =    0.000                                                            
   RMAX   =    2.345    core radius for proj-oper                               
   RAUG   =    1.300    factor for augmentation sphere                          
   RDEP   =    2.397    radius for radial grids                                 
   RDEPT  =    2.174    core radius for aug-charge                              
                                                                                
   Atomic configuration                                                         
   13 entries                                                                   
     n  l   j            E        occ.                                          
     1  0  0.50    -31621.2075   2.0000                                         
     2  0  0.50     -4848.7941   2.0000                                         
     2  1  1.50     -4352.1960   6.0000                                         
     3  0  0.50      -964.9612   2.0000                                         
     3  1  1.50      -803.6179   6.0000                                         
     3  2  2.50      -559.8710  10.0000                                         
     4  0  0.50      -164.3522   2.0000                                         
     4  1  1.50      -114.3756   6.0000                                         
     4  2  2.50       -41.6483  10.0000                                         
     5  0  0.50       -15.1072   2.0000                                         
     5  1  0.50        -5.9526   4.0000                                         
     5  2  1.50        -5.4423   0.0000                                         
     4  3  2.50        -5.4423   0.0000                                         
   Description                                                                  
     l       E           TYP  RCUT    TYP  RCUT                                 
     0    -15.1072389     23  2.300                                             
     0    -16.4678215     23  2.300                                             
     1     -5.9526306     23  2.300                                             
     1     -2.4873968     23  2.300                                             
     2     -5.4423304     23  2.300                                             
     3     -1.3605826     23  2.300                                             
  local pseudopotential read in
  partial core-charges read in
  partial kinetic energy density read in
  atomic valenz-charges read in
  non local Contribution for L= 0  read in
    real space projection operators read in
  non local Contribution for L= 0  read in
    real space projection operators read in
  non local Contribution for L= 1  read in
    real space projection operators read in
  non local Contribution for L= 1  read in
    real space projection operators read in
  non local Contribution for L= 2  read in
    real space projection operators read in
    PAW grid and wavefunctions read in
 
   number of l-projection  operators is LMAX  = 5
   number of lm-projection operators is LMMAX = 13
 
  PAW_PBE Sn_d 06Sep2000                :
 energy of atom  1       EATOM=-1893.1092
 kinetic energy error for atom=    0.0334 (will be added to EATOM!!)
  PAW_PBE Te 08Apr2002                  :
 energy of atom  2       EATOM= -223.2721
 kinetic energy error for atom=    0.0026 (will be added to EATOM!!)
 
 
 POSCAR: Sn Te                                   
  positions in direct lattice
  No initial velocities read in
 exchange correlation table for  LEXCH =        8
   RHO(1)=    0.500       N(1)  =     2000
   RHO(2)=  100.500       N(2)  =     4000
 


--------------------------------------------------------------------------------------------------------


 ion  position               nearest neighbor table
   1  0.000  0.000  0.000-   2 3.16   2 3.16   2 3.16   2 3.16   2 3.16   2 3.16
   2  0.500  0.500  0.500-   1 3.16   1 3.16   1 3.16   1 3.16   1 3.16   1 3.16
 
  LATTYP: Found a face centered cubic cell.
 ALAT       =     6.3180001411
  
  Lattice vectors:
  
 A1 = (   0.0000000000,   3.1590000705,   3.1590000705)
 A2 = (   3.1590000705,   0.0000000000,   3.1590000705)
 A3 = (   3.1590000705,   3.1590000705,   0.0000000000)


Analysis of symmetry for initial positions (statically):
=====================================================================
 Subroutine PRICEL returns:
 Original cell was already a primitive cell.
 

 Routine SETGRP: Setting up the symmetry group for a 
 face centered cubic supercell.


 Subroutine GETGRP returns: Found 48 space group operations
 (whereof 48 operations were pure point group operations)
 out of a pool of 48 trial point group operations.


The static configuration has the point symmetry O_h .


Analysis of symmetry for dynamics (positions and initial velocities):
=====================================================================
 Subroutine PRICEL returns:
 Original cell was already a primitive cell.
 

 Routine SETGRP: Setting up the symmetry group for a 
 face centered cubic supercell.


 Subroutine GETGRP returns: Found 48 space group operations
 (whereof 48 operations were pure point group operations)
 out of a pool of 48 trial point group operations.


The dynamic configuration has the point symmetry O_h .


Analysis of structural, dynamic, and magnetic symmetry:
=====================================================================
 Subroutine PRICEL returns:
 Original cell was already a primitive cell.
 

 Routine SETGRP: Setting up the symmetry group for a 
 face centered cubic supercell.


 Subroutine GETGRP returns: Found 48 space group operations
 (whereof 48 operations were pure point group operations)
 out of a pool of 48 trial point group operations.


The (compounded) configuration has the point symmetry O_h .
 
 
 KPOINTS: kpoints                                 
  interpolating k-points between supplied coordinates
  k-points in reciprocal lattice
Space group operators:
 irot       det(A)        alpha          n_x          n_y          n_z        tau_x        tau_y        tau_z
    1     1.000000     0.000000     1.000000     0.000000     0.000000     0.000000     0.000000     0.000000
    2    -1.000000     0.000000     1.000000     0.000000     0.000000     0.000000     0.000000     0.000000
    3     1.000000   120.000000    -0.577350    -0.577350    -0.577350     0.000000     0.000000     0.000000
    4    -1.000000   120.000000    -0.577350    -0.577350    -0.577350     0.000000     0.000000     0.000000
    5     1.000000   120.000000     0.577350     0.577350     0.577350     0.000000     0.000000     0.000000
    6    -1.000000   120.000000     0.577350     0.577350     0.577350     0.000000     0.000000     0.000000
    7     1.000000    90.000000     0.000000     0.000000    -1.000000     0.000000     0.000000     0.000000
    8    -1.000000    90.000000     0.000000     0.000000    -1.000000     0.000000     0.000000     0.000000
    9     1.000000   180.000000     0.000000     0.707107     0.707107     0.000000     0.000000     0.000000
   10    -1.000000   180.000000     0.000000     0.707107     0.707107     0.000000     0.000000     0.000000
   11     1.000000    90.000000     0.000000     1.000000     0.000000     0.000000     0.000000     0.000000
   12    -1.000000    90.000000     0.000000     1.000000     0.000000     0.000000     0.000000     0.000000
   13     1.000000   180.000000     0.000000     0.000000     1.000000     0.000000     0.000000     0.000000
   14    -1.000000   180.000000     0.000000     0.000000     1.000000     0.000000     0.000000     0.000000
   15     1.000000   120.000000    -0.577350     0.577350     0.577350     0.000000     0.000000     0.000000
   16    -1.000000   120.000000    -0.577350     0.577350     0.577350     0.000000     0.000000     0.000000
   17     1.000000   120.000000    -0.577350     0.577350    -0.577350     0.000000     0.000000     0.000000
   18    -1.000000   120.000000    -0.577350     0.577350    -0.577350     0.000000     0.000000     0.000000
   19     1.000000    90.000000     0.000000     0.000000     1.000000     0.000000     0.000000     0.000000
   20    -1.000000    90.000000     0.000000     0.000000     1.000000     0.000000     0.000000     0.000000
   21     1.000000    90.000000    -1.000000     0.000000     0.000000     0.000000     0.000000     0.000000
   22    -1.000000    90.000000    -1.000000     0.000000     0.000000     0.000000     0.000000     0.000000
   23     1.000000   180.000000     0.707107     0.000000     0.707107     0.000000     0.000000     0.000000
   24    -1.000000   180.000000     0.707107     0.000000     0.707107     0.000000     0.000000     0.000000
   25     1.000000   120.000000     0.577350    -0.577350     0.577350     0.000000     0.000000     0.000000
   26    -1.000000   120.000000     0.577350    -0.577350     0.577350     0.000000     0.000000     0.000000
   27     1.000000   120.000000    -0.577350    -0.577350     0.577350     0.000000     0.000000     0.000000
   28    -1.000000   120.000000    -0.577350    -0.577350     0.577350     0.000000     0.000000     0.000000
   29     1.000000   180.000000     1.000000     0.000000     0.000000     0.000000     0.000000     0.000000
   30    -1.000000   180.000000     1.000000     0.000000     0.000000     0.000000     0.000000     0.000000
   31     1.000000    90.000000     0.000000    -1.000000     0.000000     0.000000     0.000000     0.000000
   32    -1.000000    90.000000     0.000000    -1.000000     0.000000     0.000000     0.000000     0.000000
   33     1.000000   180.000000     0.707107     0.707107     0.000000     0.000000     0.000000     0.000000
   34    -1.000000   180.000000     0.707107     0.707107     0.000000     0.000000     0.000000     0.000000
   35     1.000000    90.000000     1.000000     0.000000     0.000000     0.000000     0.000000     0.000000
   36    -1.000000    90.000000     1.000000     0.000000     0.000000     0.000000     0.000000     0.000000
   37     1.000000   120.000000     0.577350    -0.577350    -0.577350     0.000000     0.000000     0.000000
   38    -1.000000   120.000000     0.577350    -0.577350    -0.577350     0.000000     0.000000     0.000000
   39     1.000000   180.000000     0.000000     1.000000     0.000000     0.000000     0.000000     0.000000
   40    -1.000000   180.000000     0.000000     1.000000     0.000000     0.000000     0.000000     0.000000
   41     1.000000   120.000000     0.577350     0.577350    -0.577350     0.000000     0.000000     0.000000
   42    -1.000000   120.000000     0.577350     0.577350    -0.577350     0.000000     0.000000     0.000000
   43     1.000000   180.000000     0.000000    -0.707107     0.707107     0.000000     0.000000     0.000000
   44    -1.000000   180.000000     0.000000    -0.707107     0.707107     0.000000     0.000000     0.000000
   45     1.000000   180.000000     0.707107    -0.707107     0.000000     0.000000     0.000000     0.000000
   46    -1.000000   180.000000     0.707107    -0.707107     0.000000     0.000000     0.000000     0.000000
   47     1.000000   180.000000     0.707107     0.000000    -0.707107     0.000000     0.000000     0.000000
   48    -1.000000   180.000000     0.707107     0.000000    -0.707107     0.000000     0.000000     0.000000


--------------------------------------------------------------------------------------------------------




 Dimension of arrays:
   k-points           NKPTS =    240   k-points in BZ     NKDIM =    240   number of bands    NBANDS=     28
   number of dos      NEDOS =    301   number of ions     NIONS =      2
   non local maximal  LDIM  =      6   non local SUM 2l+1 LMDIM =     18
   total plane-waves  NPLWV =  21952
   max r-space proj   IRMAX =      1   max aug-charges    IRDMAX=   7579
   dimension x,y,z NGX =    28 NGY =   28 NGZ =   28
   dimension x,y,z NGXF=    40 NGYF=   40 NGZF=   40
   support grid    NGXF=    40 NGYF=   40 NGZF=   40
   ions per type =               1   1
 NGX,Y,Z   is equivalent  to a cutoff of  10.42, 10.42, 10.42 a.u.
 NGXF,Y,Z  is equivalent  to a cutoff of  14.88, 14.88, 14.88 a.u.


 I would recommend the setting:
   dimension x,y,z NGX =    25 NGY =   25 NGZ =   25
 SYSTEM =  unknown system                          
 POSCAR =  Sn Te                                   

 Startparameter for this run:
   NWRITE =      2    write-flag & timer
   PREC   = high      normal or accurate (medium, high low for compatibility)
   ISTART =      0    job   : 0-new  1-cont  2-samecut
   ICHARG =     11    charge: 1-file 2-atom 10-const
   ISPIN  =      1    spin polarized calculation?
   LNONCOLLINEAR =      T non collinear calculations
   LSORBIT =      T    spin-orbit coupling
   INIWAV =      1    electr: 0-lowe 1-rand  2-diag
   LASPH  =      F    aspherical Exc in radial PAW
   METAGGA=      F    non-selfconsistent MetaGGA calc.

 Electronic Relaxation 1
   ENCUT  =  301.4 eV  22.15 Ry    4.71 a.u.   6.32  6.32  6.32*2*pi/ulx,y,z
   ENINI  =  301.4     initial cutoff
   ENAUG  =  439.8 eV  augmentation charge cutoff
   NELM   =    300;   NELMIN=  2; NELMDL= -5     # of ELM steps 
   EDIFF  = 0.1E-03   stopping-criterion for ELM
   LREAL  =      F    real-space projection
   NLSPLINE    = F    spline interpolate recip. space projectors
   LCOMPAT=      F    compatible to vasp.4.4
   GGA_COMPAT  = T    GGA compatible to vasp.4.4-vasp.4.6
   LMAXPAW     = -100 max onsite density
   LMAXMIX     =    4 max onsite mixed and CHGCAR
   VOSKOWN=      0    Vosko Wilk Nusair interpolation
   ROPT   =    0.00000   0.00000
 Ionic relaxation
   EDIFFG = 0.1E-02   stopping-criterion for IOM
   NSW    =      0    number of steps for IOM
   NBLOCK =      1;   KBLOCK =      1    inner block; outer block 
   IBRION =     -1    ionic relax: 0-MD 1-quasi-New 2-CG
   NFREE  =      0    steps in history (QN), initial steepest desc. (CG)
   ISIF   =      2    stress and relaxation
   IWAVPR =     10    prediction:  0-non 1-charg 2-wave 3-comb
   ISYM   =      2    0-nonsym 1-usesym 2-fastsym
   LCORR  =      T    Harris-Foulkes like correction to forces

   POTIM  = 0.5000    time-step for ionic-motion
   TEIN   =    0.0    initial temperature
   TEBEG  =    0.0;   TEEND  =   0.0 temperature during run
   SMASS  =  -3.00    Nose mass-parameter (am)
   estimated Nose-frequenzy (Omega)   =  0.10E-29 period in steps =****** mass=  -0.456E-27a.u.
   SCALEE = 1.0000    scale energy and forces
   NPACO  =    256;   APACO  = 16.0  distance and # of slots for P.C.
   PSTRESS=    0.0 pullay stress

  Mass of Ions in am
   POMASS = 118.71127.60
  Ionic Valenz
   ZVAL   =  14.00  6.00
  Atomic Wigner-Seitz radii
   RWIGS  =  -1.00 -1.00
  virtual crystal weights 
   VCA    =   1.00  1.00
   NELECT =      20.0000    total number of electrons
   NUPDOWN=      -1.0000    fix difference up-down

 DOS related values:
   EMIN   =  10.00;   EMAX   =-10.00  energy-range for DOS
   EFERMI =   0.00
   ISMEAR =     0;   SIGMA  =   0.20  broadening in eV -4-tet -1-fermi 0-gaus

 Electronic relaxation 2 (details)
   IALGO  =     38    algorithm
   LDIAG  =      T    sub-space diagonalisation (order eigenvalues)
   LSUBROT=      F    optimize rotation matrix (better conditioning)
   TURBO    =      0    0=normal 1=particle mesh
   IRESTART =      0    0=no restart 2=restart with 2 vectors
   NREBOOT  =      0    no. of reboots
   NMIN     =      0    reboot dimension
   EREF     =   0.00    reference energy to select bands
   IMIX   =      4    mixing-type and parameters
     AMIX     =   0.40;   BMIX     =  1.00
     AMIX_MAG =   1.60;   BMIX_MAG =  1.00
     AMIN     =   0.10
     WC   =   100.;   INIMIX=   1;  MIXPRE=   1;  MAXMIX= -45

 Intra band minimization:
   WEIMIN = 0.0000     energy-eigenvalue tresh-hold
   EBREAK =  0.89E-06  absolut break condition
   DEPER  =   0.30     relativ break condition  

   TIME   =   0.40     timestep for ELM

  volume/ion in A,a.u.               =      31.52       212.74
  Fermi-wavevector in a.u.,A,eV,Ry     =   1.116499  2.109878 16.960630  1.246571
  Thomas-Fermi vector in A             =   2.253114
 
 Write flags
   LWAVE  =      F    write WAVECAR
   LCHARG =      T    write CHGCAR
   LVTOT  =      F    write LOCPOT, total local potential
   LVHAR  =      F    write LOCPOT, Hartree potential only
   LELF   =      F    write electronic localiz. function (ELF)
   LORBIT =     11    0 simple, 1 ext, 2 COOP (PROOUT)


 Dipole corrections
   LMONO  =      F    monopole corrections only (constant potential shift)
   LDIPOL =      F    correct potential (dipole corrections)
   IDIPOL =      0    1-x, 2-y, 3-z, 4-all directions 
   EPSILON=  1.0000000 bulk dielectric constant

 Exchange correlation treatment:
   GGA     =    --    GGA type
   LEXCH   =     8    internal setting for exchange type
   VOSKOWN=      0    Vosko Wilk Nusair interpolation
   LHFCALC =     F    Hartree Fock is set to
   LHFONE  =     F    Hartree Fock one center treatment
   AEXX    =    0.0000 exact exchange contribution

 Linear response parameters
   LEPSILON=     F    determine dielectric tensor
   LRPA    =     F    only Hartree local field effects (RPA)
   LNABLA  =     F    use nabla operator in PAW spheres
   LVEL    =     F    velocity operator in full k-point grid
   LINTERFAST=   F  fast interpolation
   KINTER  =     0    interpolate to denser k-point grid
   CSHIFT  =0.1000    complex shift for real part using Kramers Kronig
   OMEGAMAX=  -1.0    maximum frequency
   DEG_THRESHOLD= 0.2000000E-02 threshold for treating states as degnerate
   RTIME   =    0.100 relaxation time in fs

 Orbital magnetization related:
   ORBITALMAG=     F  switch on orbital magnetization
   LCHIMAG   =     F  perturbation theory with respect to B field
   DQ        =  0.001000  dq finite difference perturbation B field



--------------------------------------------------------------------------------------------------------


 Static calculation
 charge density and potential remain constant during run
 non collinear spin polarized calculation
 Variant of blocked Davidson
 Davidson routine will perform the subspace rotation
 perform sub-space diagonalisation
    after iterative eigenvector-optimisation
 no mixing
 using additional bands  18
 reciprocal scheme for non local part
 use partial core corrections
 calculate Harris-corrections to forces   (improved forces if not selfconsistent)
 use gradient corrections 
 WARNING: stress and forces are not correct
  (second derivative of E(xc) not defined)
 use of overlap-Matrix (Vanderbilt PP)
 Gauss-broadening in eV      SIGMA  =   0.20


--------------------------------------------------------------------------------------------------------


  energy-cutoff  :      301.35
  volume of cell :       63.05
      direct lattice vectors                 reciprocal lattice vectors
     0.000000000  3.159000071  3.159000071    -0.158277933  0.158277933  0.158277933
     3.159000071  0.000000000  3.159000071     0.158277933 -0.158277933  0.158277933
     3.159000071  3.159000071  0.000000000     0.158277933  0.158277933 -0.158277933

  length of vectors
     4.467500743  4.467500743  4.467500743     0.274145421  0.274145421  0.274145421


 
 k-points in units of 2pi/SCALE and weight: kpoints                                 
   0.00000000  0.00000000  0.00000000       0.004
   0.00000000  0.00405841  0.00000000       0.004
   0.00000000  0.00811682  0.00000000       0.004
   0.00000000  0.01217523  0.00000000       0.004
   0.00000000  0.01623363  0.00000000       0.004
   0.00000000  0.02029204  0.00000000       0.004
   0.00000000  0.02435045  0.00000000       0.004
   0.00000000  0.02840886  0.00000000       0.004
   0.00000000  0.03246727  0.00000000       0.004
   0.00000000  0.03652568  0.00000000       0.004
   0.00000000  0.04058409  0.00000000       0.004
   0.00000000  0.04464249  0.00000000       0.004
   0.00000000  0.04870090  0.00000000       0.004
   0.00000000  0.05275931  0.00000000       0.004
   0.00000000  0.05681772  0.00000000       0.004
   0.00000000  0.06087613  0.00000000       0.004
   0.00000000  0.06493454  0.00000000       0.004
   0.00000000  0.06899294  0.00000000       0.004
   0.00000000  0.07305135  0.00000000       0.004
   0.00000000  0.07710976  0.00000000       0.004
   0.00000000  0.08116817  0.00000000       0.004
   0.00000000  0.08522658  0.00000000       0.004
   0.00000000  0.08928499  0.00000000       0.004
   0.00000000  0.09334340  0.00000000       0.004
   0.00000000  0.09740180  0.00000000       0.004
   0.00000000  0.10146021  0.00000000       0.004
   0.00000000  0.10551862  0.00000000       0.004
   0.00000000  0.10957703  0.00000000       0.004
   0.00000000  0.11363544  0.00000000       0.004
   0.00000000  0.11769385  0.00000000       0.004
   0.00000000  0.12175226  0.00000000       0.004
   0.00000000  0.12581066  0.00000000       0.004
   0.00000000  0.12986907  0.00000000       0.004
   0.00000000  0.13392748  0.00000000       0.004
   0.00000000  0.13798589  0.00000000       0.004
   0.00000000  0.14204430  0.00000000       0.004
   0.00000000  0.14610271  0.00000000       0.004
   0.00000000  0.15016112  0.00000000       0.004
   0.00000000  0.15421952  0.00000000       0.004
   0.00000000  0.15827793  0.00000000       0.004
   0.00000000  0.15827793  0.00000000       0.004
   0.00101460  0.15827793  0.00101460       0.004
   0.00202920  0.15827793  0.00202920       0.004
   0.00304381  0.15827793  0.00304381       0.004
   0.00405841  0.15827793  0.00405841       0.004
   0.00507301  0.15827793  0.00507301       0.004
   0.00608761  0.15827793  0.00608761       0.004
   0.00710221  0.15827793  0.00710221       0.004
   0.00811682  0.15827793  0.00811682       0.004
   0.00913142  0.15827793  0.00913142       0.004
   0.01014602  0.15827793  0.01014602       0.004
   0.01116062  0.15827793  0.01116062       0.004
   0.01217523  0.15827793  0.01217523       0.004
   0.01318983  0.15827793  0.01318983       0.004
   0.01420443  0.15827793  0.01420443       0.004
   0.01521903  0.15827793  0.01521903       0.004
   0.01623363  0.15827793  0.01623363       0.004
   0.01724824  0.15827793  0.01724824       0.004
   0.01826284  0.15827793  0.01826284       0.004
   0.01927744  0.15827793  0.01927744       0.004
   0.02029204  0.15827793  0.02029204       0.004
   0.02130664  0.15827793  0.02130664       0.004
   0.02232125  0.15827793  0.02232125       0.004
   0.02333585  0.15827793  0.02333585       0.004
   0.02435045  0.15827793  0.02435045       0.004
   0.02536505  0.15827793  0.02536505       0.004
   0.02637966  0.15827793  0.02637966       0.004
   0.02739426  0.15827793  0.02739426       0.004
   0.02840886  0.15827793  0.02840886       0.004
   0.02942346  0.15827793  0.02942346       0.004
   0.03043806  0.15827793  0.03043806       0.004
   0.03145267  0.15827793  0.03145267       0.004
   0.03246727  0.15827793  0.03246727       0.004
   0.03348187  0.15827793  0.03348187       0.004
   0.03449647  0.15827793  0.03449647       0.004
   0.03551107  0.15827793  0.03551107       0.004
   0.03652568  0.15827793  0.03652568       0.004
   0.03754028  0.15827793  0.03754028       0.004
   0.03855488  0.15827793  0.03855488       0.004
   0.03956948  0.15827793  0.03956948       0.004
   0.11870845  0.11870845  0.00000000       0.004
   0.11566464  0.11566464  0.00000000       0.004
   0.11262084  0.11262084  0.00000000       0.004
   0.10957703  0.10957703  0.00000000       0.004
   0.10653322  0.10653322  0.00000000       0.004
   0.10348942  0.10348942  0.00000000       0.004
   0.10044561  0.10044561  0.00000000       0.004
   0.09740180  0.09740180  0.00000000       0.004
   0.09435800  0.09435800  0.00000000       0.004
   0.09131419  0.09131419  0.00000000       0.004
   0.08827039  0.08827039  0.00000000       0.004
   0.08522658  0.08522658  0.00000000       0.004
   0.08218277  0.08218277  0.00000000       0.004
   0.07913897  0.07913897  0.00000000       0.004
   0.07609516  0.07609516  0.00000000       0.004
   0.07305135  0.07305135  0.00000000       0.004
   0.07000755  0.07000755  0.00000000       0.004
   0.06696374  0.06696374  0.00000000       0.004
   0.06391993  0.06391993  0.00000000       0.004
   0.06087613  0.06087613  0.00000000       0.004
   0.05783232  0.05783232  0.00000000       0.004
   0.05478852  0.05478852  0.00000000       0.004
   0.05174471  0.05174471  0.00000000       0.004
   0.04870090  0.04870090  0.00000000       0.004
   0.04565710  0.04565710  0.00000000       0.004
   0.04261329  0.04261329  0.00000000       0.004
   0.03956948  0.03956948  0.00000000       0.004
   0.03652568  0.03652568  0.00000000       0.004
   0.03348187  0.03348187  0.00000000       0.004
   0.03043806  0.03043806  0.00000000       0.004
   0.02739426  0.02739426  0.00000000       0.004
   0.02435045  0.02435045  0.00000000       0.004
   0.02130664  0.02130664  0.00000000       0.004
   0.01826284  0.01826284  0.00000000       0.004
   0.01521903  0.01521903  0.00000000       0.004
   0.01217523  0.01217523  0.00000000       0.004
   0.00913142  0.00913142  0.00000000       0.004
   0.00608761  0.00608761  0.00000000       0.004
   0.00304381  0.00304381  0.00000000       0.004
   0.00000000  0.00000000  0.00000000       0.004
   0.00000000  0.00000000  0.00000000       0.004
   0.00202920  0.00202920  0.00202920       0.004
   0.00405841  0.00405841  0.00405841       0.004
   0.00608761  0.00608761  0.00608761       0.004
   0.00811682  0.00811682  0.00811682       0.004
   0.01014602  0.01014602  0.01014602       0.004
   0.01217523  0.01217523  0.01217523       0.004
   0.01420443  0.01420443  0.01420443       0.004
   0.01623363  0.01623363  0.01623363       0.004
   0.01826284  0.01826284  0.01826284       0.004
   0.02029204  0.02029204  0.02029204       0.004
   0.02232125  0.02232125  0.02232125       0.004
   0.02435045  0.02435045  0.02435045       0.004
   0.02637966  0.02637966  0.02637966       0.004
   0.02840886  0.02840886  0.02840886       0.004
   0.03043806  0.03043806  0.03043806       0.004
   0.03246727  0.03246727  0.03246727       0.004
   0.03449647  0.03449647  0.03449647       0.004
   0.03652568  0.03652568  0.03652568       0.004
   0.03855488  0.03855488  0.03855488       0.004
   0.04058409  0.04058409  0.04058409       0.004
   0.04261329  0.04261329  0.04261329       0.004
   0.04464249  0.04464249  0.04464249       0.004
   0.04667170  0.04667170  0.04667170       0.004
   0.04870090  0.04870090  0.04870090       0.004
   0.05073011  0.05073011  0.05073011       0.004
   0.05275931  0.05275931  0.05275931       0.004
   0.05478852  0.05478852  0.05478852       0.004
   0.05681772  0.05681772  0.05681772       0.004
   0.05884692  0.05884692  0.05884692       0.004
   0.06087613  0.06087613  0.06087613       0.004
   0.06290533  0.06290533  0.06290533       0.004
   0.06493454  0.06493454  0.06493454       0.004
   0.06696374  0.06696374  0.06696374       0.004
   0.06899294  0.06899294  0.06899294       0.004
   0.07102215  0.07102215  0.07102215       0.004
   0.07305135  0.07305135  0.07305135       0.004
   0.07508056  0.07508056  0.07508056       0.004
   0.07710976  0.07710976  0.07710976       0.004
   0.07913897  0.07913897  0.07913897       0.004
   0.07913897  0.07913897  0.07913897       0.004
   0.07913897  0.08116817  0.07710976       0.004
   0.07913897  0.08319737  0.07508056       0.004
   0.07913897  0.08522658  0.07305135       0.004
   0.07913897  0.08725578  0.07102215       0.004
   0.07913897  0.08928499  0.06899294       0.004
   0.07913897  0.09131419  0.06696374       0.004
   0.07913897  0.09334340  0.06493454       0.004
   0.07913897  0.09537260  0.06290533       0.004
   0.07913897  0.09740180  0.06087613       0.004
   0.07913897  0.09943101  0.05884692       0.004
   0.07913897  0.10146021  0.05681772       0.004
   0.07913897  0.10348942  0.05478852       0.004
   0.07913897  0.10551862  0.05275931       0.004
   0.07913897  0.10754783  0.05073011       0.004
   0.07913897  0.10957703  0.04870090       0.004
   0.07913897  0.11160623  0.04667170       0.004
   0.07913897  0.11363544  0.04464249       0.004
   0.07913897  0.11566464  0.04261329       0.004
   0.07913897  0.11769385  0.04058409       0.004
   0.07913897  0.11972305  0.03855488       0.004
   0.07913897  0.12175226  0.03652568       0.004
   0.07913897  0.12378146  0.03449647       0.004
   0.07913897  0.12581066  0.03246727       0.004
   0.07913897  0.12783987  0.03043806       0.004
   0.07913897  0.12986907  0.02840886       0.004
   0.07913897  0.13189828  0.02637966       0.004
   0.07913897  0.13392748  0.02435045       0.004
   0.07913897  0.13595669  0.02232125       0.004
   0.07913897  0.13798589  0.02029204       0.004
   0.07913897  0.14001509  0.01826284       0.004
   0.07913897  0.14204430  0.01623363       0.004
   0.07913897  0.14407350  0.01420443       0.004
   0.07913897  0.14610271  0.01217523       0.004
   0.07913897  0.14813191  0.01014602       0.004
   0.07913897  0.15016112  0.00811682       0.004
   0.07913897  0.15219032  0.00608761       0.004
   0.07913897  0.15421952  0.00405841       0.004
   0.07913897  0.15624873  0.00202920       0.004
   0.07913897  0.15827793  0.00000000       0.004
   0.07913897  0.15827793  0.00000000       0.004
   0.07710976  0.15827793  0.00000000       0.004
   0.07508056  0.15827793  0.00000000       0.004
   0.07305135  0.15827793  0.00000000       0.004
   0.07102215  0.15827793  0.00000000       0.004
   0.06899294  0.15827793  0.00000000       0.004
   0.06696374  0.15827793  0.00000000       0.004
   0.06493454  0.15827793  0.00000000       0.004
   0.06290533  0.15827793  0.00000000       0.004
   0.06087613  0.15827793  0.00000000       0.004
   0.05884692  0.15827793  0.00000000       0.004
   0.05681772  0.15827793  0.00000000       0.004
   0.05478852  0.15827793  0.00000000       0.004
   0.05275931  0.15827793  0.00000000       0.004
   0.05073011  0.15827793  0.00000000       0.004
   0.04870090  0.15827793  0.00000000       0.004
   0.04667170  0.15827793  0.00000000       0.004
   0.04464249  0.15827793  0.00000000       0.004
   0.04261329  0.15827793  0.00000000       0.004
   0.04058409  0.15827793  0.00000000       0.004
   0.03855488  0.15827793  0.00000000       0.004
   0.03652568  0.15827793  0.00000000       0.004
   0.03449647  0.15827793  0.00000000       0.004
   0.03246727  0.15827793  0.00000000       0.004
   0.03043806  0.15827793  0.00000000       0.004
   0.02840886  0.15827793  0.00000000       0.004
   0.02637966  0.15827793  0.00000000       0.004
   0.02435045  0.15827793  0.00000000       0.004
   0.02232125  0.15827793  0.00000000       0.004
   0.02029204  0.15827793  0.00000000       0.004
   0.01826284  0.15827793  0.00000000       0.004
   0.01623363  0.15827793  0.00000000       0.004
   0.01420443  0.15827793  0.00000000       0.004
   0.01217523  0.15827793  0.00000000       0.004
   0.01014602  0.15827793  0.00000000       0.004
   0.00811682  0.15827793  0.00000000       0.004
   0.00608761  0.15827793  0.00000000       0.004
   0.00405841  0.15827793  0.00000000       0.004
   0.00202920  0.15827793  0.00000000       0.004
   0.00000000  0.15827793  0.00000000       0.004
 
 k-points in reciprocal lattice and weights: kpoints                                 
   0.00000000  0.00000000  0.00000000       0.004
   0.01282051  0.00000000  0.01282051       0.004
   0.02564103  0.00000000  0.02564103       0.004
   0.03846154  0.00000000  0.03846154       0.004
   0.05128205  0.00000000  0.05128205       0.004
   0.06410256  0.00000000  0.06410256       0.004
   0.07692308  0.00000000  0.07692308       0.004
   0.08974359  0.00000000  0.08974359       0.004
   0.10256410  0.00000000  0.10256410       0.004
   0.11538462  0.00000000  0.11538462       0.004
   0.12820513  0.00000000  0.12820513       0.004
   0.14102564  0.00000000  0.14102564       0.004
   0.15384615  0.00000000  0.15384615       0.004
   0.16666667  0.00000000  0.16666667       0.004
   0.17948718  0.00000000  0.17948718       0.004
   0.19230769  0.00000000  0.19230769       0.004
   0.20512821  0.00000000  0.20512821       0.004
   0.21794872  0.00000000  0.21794872       0.004
   0.23076923  0.00000000  0.23076923       0.004
   0.24358974  0.00000000  0.24358974       0.004
   0.25641026  0.00000000  0.25641026       0.004
   0.26923077  0.00000000  0.26923077       0.004
   0.28205128  0.00000000  0.28205128       0.004
   0.29487179  0.00000000  0.29487179       0.004
   0.30769231  0.00000000  0.30769231       0.004
   0.32051282  0.00000000  0.32051282       0.004
   0.33333333  0.00000000  0.33333333       0.004
   0.34615385  0.00000000  0.34615385       0.004
   0.35897436  0.00000000  0.35897436       0.004
   0.37179487  0.00000000  0.37179487       0.004
   0.38461538  0.00000000  0.38461538       0.004
   0.39743590  0.00000000  0.39743590       0.004
   0.41025641  0.00000000  0.41025641       0.004
   0.42307692  0.00000000  0.42307692       0.004
   0.43589744  0.00000000  0.43589744       0.004
   0.44871795  0.00000000  0.44871795       0.004
   0.46153846  0.00000000  0.46153846       0.004
   0.47435897  0.00000000  0.47435897       0.004
   0.48717949  0.00000000  0.48717949       0.004
   0.50000000  0.00000000  0.50000000       0.004
   0.50000000  0.00000000  0.50000000       0.004
   0.50320513  0.00641026  0.50320513       0.004
   0.50641026  0.01282051  0.50641026       0.004
   0.50961538  0.01923077  0.50961538       0.004
   0.51282051  0.02564103  0.51282051       0.004
   0.51602564  0.03205128  0.51602564       0.004
   0.51923077  0.03846154  0.51923077       0.004
   0.52243590  0.04487179  0.52243590       0.004
   0.52564103  0.05128205  0.52564103       0.004
   0.52884615  0.05769231  0.52884615       0.004
   0.53205128  0.06410256  0.53205128       0.004
   0.53525641  0.07051282  0.53525641       0.004
   0.53846154  0.07692308  0.53846154       0.004
   0.54166667  0.08333333  0.54166667       0.004
   0.54487179  0.08974359  0.54487179       0.004
   0.54807692  0.09615385  0.54807692       0.004
   0.55128205  0.10256410  0.55128205       0.004
   0.55448718  0.10897436  0.55448718       0.004
   0.55769231  0.11538462  0.55769231       0.004
   0.56089744  0.12179487  0.56089744       0.004
   0.56410256  0.12820513  0.56410256       0.004
   0.56730769  0.13461538  0.56730769       0.004
   0.57051282  0.14102564  0.57051282       0.004
   0.57371795  0.14743590  0.57371795       0.004
   0.57692308  0.15384615  0.57692308       0.004
   0.58012821  0.16025641  0.58012821       0.004
   0.58333333  0.16666667  0.58333333       0.004
   0.58653846  0.17307692  0.58653846       0.004
   0.58974359  0.17948718  0.58974359       0.004
   0.59294872  0.18589744  0.59294872       0.004
   0.59615385  0.19230769  0.59615385       0.004
   0.59935897  0.19871795  0.59935897       0.004
   0.60256410  0.20512821  0.60256410       0.004
   0.60576923  0.21153846  0.60576923       0.004
   0.60897436  0.21794872  0.60897436       0.004
   0.61217949  0.22435897  0.61217949       0.004
   0.61538462  0.23076923  0.61538462       0.004
   0.61858974  0.23717949  0.61858974       0.004
   0.62179487  0.24358974  0.62179487       0.004
   0.62500000  0.25000000  0.62500000       0.004
   0.37500000  0.37500000  0.75000000       0.004
   0.36538462  0.36538462  0.73076923       0.004
   0.35576923  0.35576923  0.71153846       0.004
   0.34615385  0.34615385  0.69230769       0.004
   0.33653846  0.33653846  0.67307692       0.004
   0.32692308  0.32692308  0.65384615       0.004
   0.31730769  0.31730769  0.63461538       0.004
   0.30769231  0.30769231  0.61538462       0.004
   0.29807692  0.29807692  0.59615385       0.004
   0.28846154  0.28846154  0.57692308       0.004
   0.27884615  0.27884615  0.55769231       0.004
   0.26923077  0.26923077  0.53846154       0.004
   0.25961538  0.25961538  0.51923077       0.004
   0.25000000  0.25000000  0.50000000       0.004
   0.24038462  0.24038462  0.48076923       0.004
   0.23076923  0.23076923  0.46153846       0.004
   0.22115385  0.22115385  0.44230769       0.004
   0.21153846  0.21153846  0.42307692       0.004
   0.20192308  0.20192308  0.40384615       0.004
   0.19230769  0.19230769  0.38461538       0.004
   0.18269231  0.18269231  0.36538462       0.004
   0.17307692  0.17307692  0.34615385       0.004
   0.16346154  0.16346154  0.32692308       0.004
   0.15384615  0.15384615  0.30769231       0.004
   0.14423077  0.14423077  0.28846154       0.004
   0.13461538  0.13461538  0.26923077       0.004
   0.12500000  0.12500000  0.25000000       0.004
   0.11538462  0.11538462  0.23076923       0.004
   0.10576923  0.10576923  0.21153846       0.004
   0.09615385  0.09615385  0.19230769       0.004
   0.08653846  0.08653846  0.17307692       0.004
   0.07692308  0.07692308  0.15384615       0.004
   0.06730769  0.06730769  0.13461538       0.004
   0.05769231  0.05769231  0.11538462       0.004
   0.04807692  0.04807692  0.09615385       0.004
   0.03846154  0.03846154  0.07692308       0.004
   0.02884615  0.02884615  0.05769231       0.004
   0.01923077  0.01923077  0.03846154       0.004
   0.00961538  0.00961538  0.01923077       0.004
   0.00000000  0.00000000  0.00000000       0.004
   0.00000000  0.00000000  0.00000000       0.004
   0.01282051  0.01282051  0.01282051       0.004
   0.02564103  0.02564103  0.02564103       0.004
   0.03846154  0.03846154  0.03846154       0.004
   0.05128205  0.05128205  0.05128205       0.004
   0.06410256  0.06410256  0.06410256       0.004
   0.07692308  0.07692308  0.07692308       0.004
   0.08974359  0.08974359  0.08974359       0.004
   0.10256410  0.10256410  0.10256410       0.004
   0.11538462  0.11538462  0.11538462       0.004
   0.12820513  0.12820513  0.12820513       0.004
   0.14102564  0.14102564  0.14102564       0.004
   0.15384615  0.15384615  0.15384615       0.004
   0.16666667  0.16666667  0.16666667       0.004
   0.17948718  0.17948718  0.17948718       0.004
   0.19230769  0.19230769  0.19230769       0.004
   0.20512821  0.20512821  0.20512821       0.004
   0.21794872  0.21794872  0.21794872       0.004
   0.23076923  0.23076923  0.23076923       0.004
   0.24358974  0.24358974  0.24358974       0.004
   0.25641026  0.25641026  0.25641026       0.004
   0.26923077  0.26923077  0.26923077       0.004
   0.28205128  0.28205128  0.28205128       0.004
   0.29487179  0.29487179  0.29487179       0.004
   0.30769231  0.30769231  0.30769231       0.004
   0.32051282  0.32051282  0.32051282       0.004
   0.33333333  0.33333333  0.33333333       0.004
   0.34615385  0.34615385  0.34615385       0.004
   0.35897436  0.35897436  0.35897436       0.004
   0.37179487  0.37179487  0.37179487       0.004
   0.38461538  0.38461538  0.38461538       0.004
   0.39743590  0.39743590  0.39743590       0.004
   0.41025641  0.41025641  0.41025641       0.004
   0.42307692  0.42307692  0.42307692       0.004
   0.43589744  0.43589744  0.43589744       0.004
   0.44871795  0.44871795  0.44871795       0.004
   0.46153846  0.46153846  0.46153846       0.004
   0.47435897  0.47435897  0.47435897       0.004
   0.48717949  0.48717949  0.48717949       0.004
   0.50000000  0.50000000  0.50000000       0.004
   0.50000000  0.50000000  0.50000000       0.004
   0.50000000  0.49358974  0.50641026       0.004
   0.50000000  0.48717949  0.51282051       0.004
   0.50000000  0.48076923  0.51923077       0.004
   0.50000000  0.47435897  0.52564103       0.004
   0.50000000  0.46794872  0.53205128       0.004
   0.50000000  0.46153846  0.53846154       0.004
   0.50000000  0.45512821  0.54487179       0.004
   0.50000000  0.44871795  0.55128205       0.004
   0.50000000  0.44230769  0.55769231       0.004
   0.50000000  0.43589744  0.56410256       0.004
   0.50000000  0.42948718  0.57051282       0.004
   0.50000000  0.42307692  0.57692308       0.004
   0.50000000  0.41666667  0.58333333       0.004
   0.50000000  0.41025641  0.58974359       0.004
   0.50000000  0.40384615  0.59615385       0.004
   0.50000000  0.39743590  0.60256410       0.004
   0.50000000  0.39102564  0.60897436       0.004
   0.50000000  0.38461538  0.61538462       0.004
   0.50000000  0.37820513  0.62179487       0.004
   0.50000000  0.37179487  0.62820513       0.004
   0.50000000  0.36538462  0.63461538       0.004
   0.50000000  0.35897436  0.64102564       0.004
   0.50000000  0.35256410  0.64743590       0.004
   0.50000000  0.34615385  0.65384615       0.004
   0.50000000  0.33974359  0.66025641       0.004
   0.50000000  0.33333333  0.66666667       0.004
   0.50000000  0.32692308  0.67307692       0.004
   0.50000000  0.32051282  0.67948718       0.004
   0.50000000  0.31410256  0.68589744       0.004
   0.50000000  0.30769231  0.69230769       0.004
   0.50000000  0.30128205  0.69871795       0.004
   0.50000000  0.29487179  0.70512821       0.004
   0.50000000  0.28846154  0.71153846       0.004
   0.50000000  0.28205128  0.71794872       0.004
   0.50000000  0.27564103  0.72435897       0.004
   0.50000000  0.26923077  0.73076923       0.004
   0.50000000  0.26282051  0.73717949       0.004
   0.50000000  0.25641026  0.74358974       0.004
   0.50000000  0.25000000  0.75000000       0.004
   0.50000000  0.25000000  0.75000000       0.004
   0.50000000  0.24358974  0.74358974       0.004
   0.50000000  0.23717949  0.73717949       0.004
   0.50000000  0.23076923  0.73076923       0.004
   0.50000000  0.22435897  0.72435897       0.004
   0.50000000  0.21794872  0.71794872       0.004
   0.50000000  0.21153846  0.71153846       0.004
   0.50000000  0.20512821  0.70512821       0.004
   0.50000000  0.19871795  0.69871795       0.004
   0.50000000  0.19230769  0.69230769       0.004
   0.50000000  0.18589744  0.68589744       0.004
   0.50000000  0.17948718  0.67948718       0.004
   0.50000000  0.17307692  0.67307692       0.004
   0.50000000  0.16666667  0.66666667       0.004
   0.50000000  0.16025641  0.66025641       0.004
   0.50000000  0.15384615  0.65384615       0.004
   0.50000000  0.14743590  0.64743590       0.004
   0.50000000  0.14102564  0.64102564       0.004
   0.50000000  0.13461538  0.63461538       0.004
   0.50000000  0.12820513  0.62820513       0.004
   0.50000000  0.12179487  0.62179487       0.004
   0.50000000  0.11538462  0.61538462       0.004
   0.50000000  0.10897436  0.60897436       0.004
   0.50000000  0.10256410  0.60256410       0.004
   0.50000000  0.09615385  0.59615385       0.004
   0.50000000  0.08974359  0.58974359       0.004
   0.50000000  0.08333333  0.58333333       0.004
   0.50000000  0.07692308  0.57692308       0.004
   0.50000000  0.07051282  0.57051282       0.004
   0.50000000  0.06410256  0.56410256       0.004
   0.50000000  0.05769231  0.55769231       0.004
   0.50000000  0.05128205  0.55128205       0.004
   0.50000000  0.04487179  0.54487179       0.004
   0.50000000  0.03846154  0.53846154       0.004
   0.50000000  0.03205128  0.53205128       0.004
   0.50000000  0.02564103  0.52564103       0.004
   0.50000000  0.01923077  0.51923077       0.004
   0.50000000  0.01282051  0.51282051       0.004
   0.50000000  0.00641026  0.50641026       0.004
   0.50000000  0.00000000  0.50000000       0.004
 
 position of ions in fractional coordinates (direct lattice) 
   0.00000000  0.00000000  0.00000000
   0.50000000  0.50000000  0.50000000
 
 position of ions in cartesian coordinates  (Angst):
   0.00000000  0.00000000  0.00000000
   3.15900007  3.15900007  3.15900007
 
 Euler angles ALPHA=     0.0000000  BETA=     0.0000000

 transformation matrix from SAXIS to cartesian coordinates
 ---------------------------------------------------------
     1.0000000 m_x     0.0000000 m_y     0.0000000 m_z
     0.0000000 m_x     1.0000000 m_y     0.0000000 m_z
     0.0000000 m_x     0.0000000 m_y     1.0000000 m_z

 transformation matrix from cartesian coordinates to SAXIS
 ---------------------------------------------------------
     1.0000000 m_x     0.0000000 m_y     0.0000000 m_z
     0.0000000 m_x     1.0000000 m_y     0.0000000 m_z
     0.0000000 m_x     0.0000000 m_y     1.0000000 m_z




--------------------------------------------------------------------------------------------------------


 k-point  1 :   0.0000 0.0000 0.0000  plane waves:    1450
 k-point  2 :   0.0128 0.0000 0.0128  plane waves:    1466
 k-point  3 :   0.0256 0.0000 0.0256  plane waves:    1466
 k-point  4 :   0.0385 0.0000 0.0385  plane waves:    1466
 k-point  5 :   0.0513 0.0000 0.0513  plane waves:    1466
 k-point  6 :   0.0641 0.0000 0.0641  plane waves:    1466
 k-point  7 :   0.0769 0.0000 0.0769  plane waves:    1466
 k-point  8 :   0.0897 0.0000 0.0897  plane waves:    1474
 k-point  9 :   0.1026 0.0000 0.1026  plane waves:    1474
 k-point 10 :   0.1154 0.0000 0.1154  plane waves:    1490
 k-point 11 :   0.1282 0.0000 0.1282  plane waves:    1506
 k-point 12 :   0.1410 0.0000 0.1410  plane waves:    1506
 k-point 13 :   0.1538 0.0000 0.1538  plane waves:    1506
 k-point 14 :   0.1667 0.0000 0.1667  plane waves:    1506
 k-point 15 :   0.1795 0.0000 0.1795  plane waves:    1490
 k-point 16 :   0.1923 0.0000 0.1923  plane waves:    1490
 k-point 17 :   0.2051 0.0000 0.2051  plane waves:    1490
 k-point 18 :   0.2179 0.0000 0.2179  plane waves:    1490
 k-point 19 :   0.2308 0.0000 0.2308  plane waves:    1490
 k-point 20 :   0.2436 0.0000 0.2436  plane waves:    1458
 k-point 21 :   0.2564 0.0000 0.2564  plane waves:    1458
 k-point 22 :   0.2692 0.0000 0.2692  plane waves:    1458
 k-point 23 :   0.2821 0.0000 0.2821  plane waves:    1490
 k-point 24 :   0.2949 0.0000 0.2949  plane waves:    1490
 k-point 25 :   0.3077 0.0000 0.3077  plane waves:    1490
 k-point 26 :   0.3205 0.0000 0.3205  plane waves:    1498
 k-point 27 :   0.3333 0.0000 0.3333  plane waves:    1498
 k-point 28 :   0.3462 0.0000 0.3462  plane waves:    1498
 k-point 29 :   0.3590 0.0000 0.3590  plane waves:    1506
 k-point 30 :   0.3718 0.0000 0.3718  plane waves:    1506
 k-point 31 :   0.3846 0.0000 0.3846  plane waves:    1506
 k-point 32 :   0.3974 0.0000 0.3974  plane waves:    1506
 k-point 33 :   0.4103 0.0000 0.4103  plane waves:    1506
 k-point 34 :   0.4231 0.0000 0.4231  plane waves:    1498
 k-point 35 :   0.4359 0.0000 0.4359  plane waves:    1498
 k-point 36 :   0.4487 0.0000 0.4487  plane waves:    1490
 k-point 37 :   0.4615 0.0000 0.4615  plane waves:    1490
 k-point 38 :   0.4744 0.0000 0.4744  plane waves:    1480
 k-point 39 :   0.4872 0.0000 0.4872  plane waves:    1480
 k-point 40 :   0.5000 0.0000 0.5000  plane waves:    1480
 k-point 41 :   0.5000 0.0000 0.5000  plane waves:    1480
 k-point 42 :   0.5032 0.0064 0.5032  plane waves:    1480
 k-point 43 :   0.5064 0.0128 0.5064  plane waves:    1480
 k-point 44 :   0.5096 0.0192 0.5096  plane waves:    1480
 k-point 45 :   0.5128 0.0256 0.5128  plane waves:    1480
 k-point 46 :   0.5160 0.0321 0.5160  plane waves:    1480
 k-point 47 :   0.5192 0.0385 0.5192  plane waves:    1480
 k-point 48 :   0.5224 0.0449 0.5224  plane waves:    1492
 k-point 49 :   0.5256 0.0513 0.5256  plane waves:    1492
 k-point 50 :   0.5288 0.0577 0.5288  plane waves:    1492
 k-point 51 :   0.5321 0.0641 0.5321  plane waves:    1492
 k-point 52 :   0.5353 0.0705 0.5353  plane waves:    1496
 k-point 53 :   0.5385 0.0769 0.5385  plane waves:    1496
 k-point 54 :   0.5417 0.0833 0.5417  plane waves:    1488
 k-point 55 :   0.5449 0.0897 0.5449  plane waves:    1488
 k-point 56 :   0.5481 0.0962 0.5481  plane waves:    1488
 k-point 57 :   0.5513 0.1026 0.5513  plane waves:    1492
 k-point 58 :   0.5545 0.1090 0.5545  plane waves:    1492
 k-point 59 :   0.5577 0.1154 0.5577  plane waves:    1492
 k-point 60 :   0.5609 0.1218 0.5609  plane waves:    1492
 k-point 61 :   0.5641 0.1282 0.5641  plane waves:    1492
 k-point 62 :   0.5673 0.1346 0.5673  plane waves:    1504
 k-point 63 :   0.5705 0.1410 0.5705  plane waves:    1504
 k-point 64 :   0.5737 0.1474 0.5737  plane waves:    1488
 k-point 65 :   0.5769 0.1538 0.5769  plane waves:    1488
 k-point 66 :   0.5801 0.1603 0.5801  plane waves:    1488
 k-point 67 :   0.5833 0.1667 0.5833  plane waves:    1488
 k-point 68 :   0.5865 0.1731 0.5865  plane waves:    1488
 k-point 69 :   0.5897 0.1795 0.5897  plane waves:    1492
 k-point 70 :   0.5929 0.1859 0.5929  plane waves:    1492
 k-point 71 :   0.5962 0.1923 0.5962  plane waves:    1492
 k-point 72 :   0.5994 0.1987 0.5994  plane waves:    1492
 k-point 73 :   0.6026 0.2051 0.6026  plane waves:    1492
 k-point 74 :   0.6058 0.2115 0.6058  plane waves:    1492
 k-point 75 :   0.6090 0.2179 0.6090  plane waves:    1492
 k-point 76 :   0.6122 0.2244 0.6122  plane waves:    1492
 k-point 77 :   0.6154 0.2308 0.6154  plane waves:    1492
 k-point 78 :   0.6186 0.2372 0.6186  plane waves:    1492
 k-point 79 :   0.6218 0.2436 0.6218  plane waves:    1484
 k-point 80 :   0.6250 0.2500 0.6250  plane waves:    1480
 k-point 81 :   0.3750 0.3750 0.7500  plane waves:    1480
 k-point 82 :   0.3654 0.3654 0.7308  plane waves:    1480
 k-point 83 :   0.3558 0.3558 0.7115  plane waves:    1476
 k-point 84 :   0.3462 0.3462 0.6923  plane waves:    1468
 k-point 85 :   0.3365 0.3365 0.6731  plane waves:    1480
 k-point 86 :   0.3269 0.3269 0.6538  plane waves:    1480
 k-point 87 :   0.3173 0.3173 0.6346  plane waves:    1480
 k-point 88 :   0.3077 0.3077 0.6154  plane waves:    1480
 k-point 89 :   0.2981 0.2981 0.5962  plane waves:    1504
 k-point 90 :   0.2885 0.2885 0.5769  plane waves:    1488
 k-point 91 :   0.2788 0.2788 0.5577  plane waves:    1500
 k-point 92 :   0.2692 0.2692 0.5385  plane waves:    1508
 k-point 93 :   0.2596 0.2596 0.5192  plane waves:    1508
 k-point 94 :   0.2500 0.2500 0.5000  plane waves:    1508
 k-point 95 :   0.2404 0.2404 0.4808  plane waves:    1508
 k-point 96 :   0.2308 0.2308 0.4615  plane waves:    1500
 k-point 97 :   0.2212 0.2212 0.4423  plane waves:    1508
 k-point 98 :   0.2115 0.2115 0.4231  plane waves:    1508
 k-point 99 :   0.2019 0.2019 0.4038  plane waves:    1492
 k-point ** :   0.1923 0.1923 0.3846  plane waves:    1508
 k-point ** :   0.1827 0.1827 0.3654  plane waves:    1516
 k-point ** :   0.1731 0.1731 0.3462  plane waves:    1500
 k-point ** :   0.1635 0.1635 0.3269  plane waves:    1496
 k-point ** :   0.1538 0.1538 0.3077  plane waves:    1498
 k-point ** :   0.1442 0.1442 0.2885  plane waves:    1506
 k-point ** :   0.1346 0.1346 0.2692  plane waves:    1506
 k-point ** :   0.1250 0.1250 0.2500  plane waves:    1506
 k-point ** :   0.1154 0.1154 0.2308  plane waves:    1518
 k-point ** :   0.1058 0.1058 0.2115  plane waves:    1518
 k-point ** :   0.0962 0.0962 0.1923  plane waves:    1502
 k-point ** :   0.0865 0.0865 0.1731  plane waves:    1502
 k-point ** :   0.0769 0.0769 0.1538  plane waves:    1498
 k-point ** :   0.0673 0.0673 0.1346  plane waves:    1482
 k-point ** :   0.0577 0.0577 0.1154  plane waves:    1474
 k-point ** :   0.0481 0.0481 0.0962  plane waves:    1474
 k-point ** :   0.0385 0.0385 0.0769  plane waves:    1474
 k-point ** :   0.0288 0.0288 0.0577  plane waves:    1474
 k-point ** :   0.0192 0.0192 0.0385  plane waves:    1474
 k-point ** :   0.0096 0.0096 0.0192  plane waves:    1474
 k-point ** :   0.0000 0.0000 0.0000  plane waves:    1450
 k-point ** :   0.0000 0.0000 0.0000  plane waves:    1450
 k-point ** :   0.0128 0.0128 0.0128  plane waves:    1474
 k-point ** :   0.0256 0.0256 0.0256  plane waves:    1474
 k-point ** :   0.0385 0.0385 0.0385  plane waves:    1474
 k-point ** :   0.0513 0.0513 0.0513  plane waves:    1474
 k-point ** :   0.0641 0.0641 0.0641  plane waves:    1474
 k-point ** :   0.0769 0.0769 0.0769  plane waves:    1474
 k-point ** :   0.0897 0.0897 0.0897  plane waves:    1474
 k-point ** :   0.1026 0.1026 0.1026  plane waves:    1486
 k-point ** :   0.1154 0.1154 0.1154  plane waves:    1486
 k-point ** :   0.1282 0.1282 0.1282  plane waves:    1486
 k-point ** :   0.1410 0.1410 0.1410  plane waves:    1486
 k-point ** :   0.1538 0.1538 0.1538  plane waves:    1498
 k-point ** :   0.1667 0.1667 0.1667  plane waves:    1496
 k-point ** :   0.1795 0.1795 0.1795  plane waves:    1520
 k-point ** :   0.1923 0.1923 0.1923  plane waves:    1508
 k-point ** :   0.2051 0.2051 0.2051  plane waves:    1502
 k-point ** :   0.2179 0.2179 0.2179  plane waves:    1514
 k-point ** :   0.2308 0.2308 0.2308  plane waves:    1508
 k-point ** :   0.2436 0.2436 0.2436  plane waves:    1508
 k-point ** :   0.2564 0.2564 0.2564  plane waves:    1508
 k-point ** :   0.2692 0.2692 0.2692  plane waves:    1514
 k-point ** :   0.2821 0.2821 0.2821  plane waves:    1514
 k-point ** :   0.2949 0.2949 0.2949  plane waves:    1514
 k-point ** :   0.3077 0.3077 0.3077  plane waves:    1514
 k-point ** :   0.3205 0.3205 0.3205  plane waves:    1502
 k-point ** :   0.3333 0.3333 0.3333  plane waves:    1502
 k-point ** :   0.3462 0.3462 0.3462  plane waves:    1514
 k-point ** :   0.3590 0.3590 0.3590  plane waves:    1514
 k-point ** :   0.3718 0.3718 0.3718  plane waves:    1526
 k-point ** :   0.3846 0.3846 0.3846  plane waves:    1526
 k-point ** :   0.3974 0.3974 0.3974  plane waves:    1526
 k-point ** :   0.4103 0.4103 0.4103  plane waves:    1520
 k-point ** :   0.4231 0.4231 0.4231  plane waves:    1520
 k-point ** :   0.4359 0.4359 0.4359  plane waves:    1520
 k-point ** :   0.4487 0.4487 0.4487  plane waves:    1526
 k-point ** :   0.4615 0.4615 0.4615  plane waves:    1514
 k-point ** :   0.4744 0.4744 0.4744  plane waves:    1508
 k-point ** :   0.4872 0.4872 0.4872  plane waves:    1508
 k-point ** :   0.5000 0.5000 0.5000  plane waves:    1508
 k-point ** :   0.5000 0.5000 0.5000  plane waves:    1508
 k-point ** :   0.5000 0.4936 0.5064  plane waves:    1508
 k-point ** :   0.5000 0.4872 0.5128  plane waves:    1508
 k-point ** :   0.5000 0.4808 0.5192  plane waves:    1508
 k-point ** :   0.5000 0.4744 0.5256  plane waves:    1508
 k-point ** :   0.5000 0.4679 0.5321  plane waves:    1508
 k-point ** :   0.5000 0.4615 0.5385  plane waves:    1504
 k-point ** :   0.5000 0.4551 0.5449  plane waves:    1504
 k-point ** :   0.5000 0.4487 0.5513  plane waves:    1500
 k-point ** :   0.5000 0.4423 0.5577  plane waves:    1500
 k-point ** :   0.5000 0.4359 0.5641  plane waves:    1504
 k-point ** :   0.5000 0.4295 0.5705  plane waves:    1504
 k-point ** :   0.5000 0.4231 0.5769  plane waves:    1500
 k-point ** :   0.5000 0.4167 0.5833  plane waves:    1496
 k-point ** :   0.5000 0.4103 0.5897  plane waves:    1496
 k-point ** :   0.5000 0.4038 0.5962  plane waves:    1496
 k-point ** :   0.5000 0.3974 0.6026  plane waves:    1500
 k-point ** :   0.5000 0.3910 0.6090  plane waves:    1496
 k-point ** :   0.5000 0.3846 0.6154  plane waves:    1496
 k-point ** :   0.5000 0.3782 0.6218  plane waves:    1496
 k-point ** :   0.5000 0.3718 0.6282  plane waves:    1488
 k-point ** :   0.5000 0.3654 0.6346  plane waves:    1488
 k-point ** :   0.5000 0.3590 0.6410  plane waves:    1484
 k-point ** :   0.5000 0.3526 0.6474  plane waves:    1484
 k-point ** :   0.5000 0.3462 0.6538  plane waves:    1484
 k-point ** :   0.5000 0.3397 0.6603  plane waves:    1476
 k-point ** :   0.5000 0.3333 0.6667  plane waves:    1476
 k-point ** :   0.5000 0.3269 0.6731  plane waves:    1476
 k-point ** :   0.5000 0.3205 0.6795  plane waves:    1480
 k-point ** :   0.5000 0.3141 0.6859  plane waves:    1476
 k-point ** :   0.5000 0.3077 0.6923  plane waves:    1480
 k-point ** :   0.5000 0.3013 0.6987  plane waves:    1480
 k-point ** :   0.5000 0.2949 0.7051  plane waves:    1476
 k-point ** :   0.5000 0.2885 0.7115  plane waves:    1476
 k-point ** :   0.5000 0.2821 0.7179  plane waves:    1480
 k-point ** :   0.5000 0.2756 0.7244  plane waves:    1484
 k-point ** :   0.5000 0.2692 0.7308  plane waves:    1484
 k-point ** :   0.5000 0.2628 0.7372  plane waves:    1488
 k-point ** :   0.5000 0.2564 0.7436  plane waves:    1488
 k-point ** :   0.5000 0.2500 0.7500  plane waves:    1488
 k-point ** :   0.5000 0.2500 0.7500  plane waves:    1488
 k-point ** :   0.5000 0.2436 0.7436  plane waves:    1488
 k-point ** :   0.5000 0.2372 0.7372  plane waves:    1488
 k-point ** :   0.5000 0.2308 0.7308  plane waves:    1488
 k-point ** :   0.5000 0.2244 0.7244  plane waves:    1488
 k-point ** :   0.5000 0.2179 0.7179  plane waves:    1480
 k-point ** :   0.5000 0.2115 0.7115  plane waves:    1480
 k-point ** :   0.5000 0.2051 0.7051  plane waves:    1492
 k-point ** :   0.5000 0.1987 0.6987  plane waves:    1492
 k-point ** :   0.5000 0.1923 0.6923  plane waves:    1492
 k-point ** :   0.5000 0.1859 0.6859  plane waves:    1492
 k-point ** :   0.5000 0.1795 0.6795  plane waves:    1484
 k-point ** :   0.5000 0.1731 0.6731  plane waves:    1492
 k-point ** :   0.5000 0.1667 0.6667  plane waves:    1484
 k-point ** :   0.5000 0.1603 0.6603  plane waves:    1484
 k-point ** :   0.5000 0.1538 0.6538  plane waves:    1484
 k-point ** :   0.5000 0.1474 0.6474  plane waves:    1484
 k-point ** :   0.5000 0.1410 0.6410  plane waves:    1484
 k-point ** :   0.5000 0.1346 0.6346  plane waves:    1484
 k-point ** :   0.5000 0.1282 0.6282  plane waves:    1484
 k-point ** :   0.5000 0.1218 0.6218  plane waves:    1484
 k-point ** :   0.5000 0.1154 0.6154  plane waves:    1492
 k-point ** :   0.5000 0.1090 0.6090  plane waves:    1492
 k-point ** :   0.5000 0.1026 0.6026  plane waves:    1492
 k-point ** :   0.5000 0.0962 0.5962  plane waves:    1500
 k-point ** :   0.5000 0.0897 0.5897  plane waves:    1508
 k-point ** :   0.5000 0.0833 0.5833  plane waves:    1508
 k-point ** :   0.5000 0.0769 0.5769  plane waves:    1508
 k-point ** :   0.5000 0.0705 0.5705  plane waves:    1508
 k-point ** :   0.5000 0.0641 0.5641  plane waves:    1500
 k-point ** :   0.5000 0.0577 0.5577  plane waves:    1500
 k-point ** :   0.5000 0.0513 0.5513  plane waves:    1496
 k-point ** :   0.5000 0.0449 0.5449  plane waves:    1496
 k-point ** :   0.5000 0.0385 0.5385  plane waves:    1488
 k-point ** :   0.5000 0.0321 0.5321  plane waves:    1480
 k-point ** :   0.5000 0.0256 0.5256  plane waves:    1480
 k-point ** :   0.5000 0.0192 0.5192  plane waves:    1480
 k-point ** :   0.5000 0.0128 0.5128  plane waves:    1480
 k-point ** :   0.5000 0.0064 0.5064  plane waves:    1480
 k-point ** :   0.5000 0.0000 0.5000  plane waves:    1480

 maximum and minimum number of plane-waves per node :       318      272

 maximum number of plane-waves:      1526
 maximum index in each direction: 
   IXMAX=    6   IYMAX=    6   IZMAX=    6
   IXMIN=   -6   IYMIN=   -6   IZMIN=   -7

 NGX is ok and might be reduce to  26
 NGY is ok and might be reduce to  26
 NGZ is ok and might be reduce to  28

 parallel 3D FFT for wavefunctions:
    minimum data exchange during FFTs selected (reduces bandwidth)
 parallel 3D FFT for charge:
    minimum data exchange during FFTs selected (reduces bandwidth)


 total amount of memory used by VASP on root node    52566. kBytes
========================================================================

   base      :      30000. kBytes
   nonl-proj :      11064. kBytes
   fftplans  :        394. kBytes
   grid      :       1370. kBytes
   one-center:         62. kBytes
   wavefun   :       9676. kBytes
 
     INWAV:  cpu time    0.00: real time    0.00
 initial charge density was supplied:
 number of electron      19.9999914 magnetization       0.0000000      0.0000000      0.0000000
 keeping initial charge density in first step


--------------------------------------------------------------------------------------------------------


 Maximum index for augmentation-charges  421 (set IRDMAX)


--------------------------------------------------------------------------------------------------------


 First call to EWALD:  gamma=   0.445
 Maximum number of real-space cells 3x 3x 3
 Maximum number of reciprocal cells 3x 3x 3

 FEWALD executed in parallel
    FEWALD:  cpu time    0.00: real time    0.00


----------------------------------------- Iteration    1(   1)  ---------------------------------------


    POTLOK:  cpu time    0.11: real time    0.11
    SETDIJ:  cpu time    0.06: real time    0.06
     EDDAV:  cpu time   46.36: real time   46.37
       DOS:  cpu time    0.03: real time    0.03
    --------------------------------------------
      LOOP:  cpu time   46.57: real time   46.62

 eigenvalue-minimisations  : 13440
 total energy-change (2. order) : 0.3995450E+02  (-0.8340707E+03)
 number of electron      19.9999914 magnetization       0.0000000      0.0000000      0.0000000
 augmentation part       19.9999914 magnetization       0.0000000      0.0000000      0.0000000

 Free energy of the ion-electron system (eV)
  ---------------------------------------------------
  alpha Z        PSCENC =        26.74713621
  Ewald energy   TEWEN  =     -1420.79165657
  -Hartree energ DENC   =      -624.19823432
  -exchange      EXHF   =         0.00000000
  -V(xc)+E(xc)   XCENC  =        28.85110192
  PAW double counting   =      2250.81284417    -2249.90745952
  entropy T*S    EENTRO =        -0.01692582
  eigenvalues    EBANDS =       -87.88755955
  atomic energy  EATOM  =      2116.34525819
  ---------------------------------------------------
  free energy    TOTEN  =        39.95450471 eV

  energy without entropy =       39.97143053  energy(sigma->0) =       39.96296762


--------------------------------------------------------------------------------------------------------




----------------------------------------- Iteration    1(   2)  ---------------------------------------


     EDDAV:  cpu time   75.92: real time   75.92
       DOS:  cpu time    0.03: real time    0.03
    --------------------------------------------
      LOOP:  cpu time   75.95: real time   76.03

 eigenvalue-minimisations  : 20580
 total energy-change (2. order) :-0.4687588E+02  (-0.4614362E+02)
 number of electron      19.9999914 magnetization       0.0000000      0.0000000      0.0000000
 augmentation part       19.9999914 magnetization       0.0000000      0.0000000      0.0000000

 Free energy of the ion-electron system (eV)
  ---------------------------------------------------
  alpha Z        PSCENC =        26.74713621
  Ewald energy   TEWEN  =     -1420.79165657
  -Hartree energ DENC   =      -624.19823432
  -exchange      EXHF   =         0.00000000
  -V(xc)+E(xc)   XCENC  =        28.85110192
  PAW double counting   =      2250.81284417    -2249.90745952
  entropy T*S    EENTRO =        -0.00904340
  eigenvalues    EBANDS =      -134.77132603
  atomic energy  EATOM  =      2116.34525819
  ---------------------------------------------------
  free energy    TOTEN  =        -6.92137935 eV

  energy without entropy =       -6.91233595  energy(sigma->0) =       -6.91685765


--------------------------------------------------------------------------------------------------------




----------------------------------------- Iteration    1(   3)  ---------------------------------------


     EDDAV:  cpu time   69.32: real time   69.32
       DOS:  cpu time    0.03: real time    0.03
    --------------------------------------------
      LOOP:  cpu time   69.35: real time   69.48

 eigenvalue-minimisations  : 18732
 total energy-change (2. order) :-0.1008278E+01  (-0.1005636E+01)
 number of electron      19.9999914 magnetization       0.0000000      0.0000000      0.0000000
 augmentation part       19.9999914 magnetization       0.0000000      0.0000000      0.0000000

 Free energy of the ion-electron system (eV)
  ---------------------------------------------------
  alpha Z        PSCENC =        26.74713621
  Ewald energy   TEWEN  =     -1420.79165657
  -Hartree energ DENC   =      -624.19823432
  -exchange      EXHF   =         0.00000000
  -V(xc)+E(xc)   XCENC  =        28.85110192
  PAW double counting   =      2250.81284417    -2249.90745952
  entropy T*S    EENTRO =        -0.00771016
  eigenvalues    EBANDS =      -135.78093683
  atomic energy  EATOM  =      2116.34525819
  ---------------------------------------------------
  free energy    TOTEN  =        -7.92965690 eV

  energy without entropy =       -7.92194674  energy(sigma->0) =       -7.92580182


--------------------------------------------------------------------------------------------------------




----------------------------------------- Iteration    1(   4)  ---------------------------------------


     EDDAV:  cpu time   73.65: real time   73.66
       DOS:  cpu time    0.03: real time    0.03
    --------------------------------------------
      LOOP:  cpu time   73.69: real time   73.77

 eigenvalue-minimisations  : 20020
 total energy-change (2. order) :-0.6882892E-02  (-0.6882748E-02)
 number of electron      19.9999914 magnetization       0.0000000      0.0000000      0.0000000
 augmentation part       19.9999914 magnetization       0.0000000      0.0000000      0.0000000

 Free energy of the ion-electron system (eV)
  ---------------------------------------------------
  alpha Z        PSCENC =        26.74713621
  Ewald energy   TEWEN  =     -1420.79165657
  -Hartree energ DENC   =      -624.19823432
  -exchange      EXHF   =         0.00000000
  -V(xc)+E(xc)   XCENC  =        28.85110192
  PAW double counting   =      2250.81284417    -2249.90745952
  entropy T*S    EENTRO =        -0.00771289
  eigenvalues    EBANDS =      -135.78781698
  atomic energy  EATOM  =      2116.34525819
  ---------------------------------------------------
  free energy    TOTEN  =        -7.93653979 eV

  energy without entropy =       -7.92882690  energy(sigma->0) =       -7.93268335


--------------------------------------------------------------------------------------------------------




----------------------------------------- Iteration    1(   5)  ---------------------------------------


     EDDAV:  cpu time   67.19: real time   67.20
       DOS:  cpu time    0.03: real time    0.03
 


 total charge     
 
# of ion     s       p       d       tot
----------------------------------------
  1        1.364   0.749   9.962  12.074
  2        1.413   2.011   0.022   3.445
------------------------------------------------
tot        2.776   2.759   9.984  15.519
 


 magnetization (x)
 
# of ion     s       p       d       tot
----------------------------------------
  1        0.000   0.000   0.000   0.000
  2        0.000   0.000   0.000   0.000
------------------------------------------------
tot        0.000   0.000   0.000   0.000
 


 magnetization (y)
 
# of ion     s       p       d       tot
----------------------------------------
  1        0.000   0.000   0.000   0.000
  2        0.000   0.000   0.000   0.000
------------------------------------------------
tot        0.000   0.000   0.000   0.000
 


 magnetization (z)
 
# of ion     s       p       d       tot
----------------------------------------
  1        0.000   0.000   0.000   0.000
  2        0.000   0.000   0.000   0.000
------------------------------------------------
tot        0.000   0.000   0.000   0.000
 
    --------------------------------------------
      LOOP:  cpu time   67.35: real time   67.38

 eigenvalue-minimisations  : 18452
 total energy-change (2. order) :-0.1398689E-04  (-0.1398683E-04)
 number of electron      19.9999914 magnetization       0.0000000      0.0000000      0.0000000
 augmentation part       19.9999914 magnetization       0.0000000      0.0000000      0.0000000

 Free energy of the ion-electron system (eV)
  ---------------------------------------------------
  alpha Z        PSCENC =        26.74713621
  Ewald energy   TEWEN  =     -1420.79165657
  -Hartree energ DENC   =      -624.19823432
  -exchange      EXHF   =         0.00000000
  -V(xc)+E(xc)   XCENC  =        28.85110192
  PAW double counting   =      2250.81284417    -2249.90745952
  entropy T*S    EENTRO =        -0.00771289
  eigenvalues    EBANDS =      -135.78783097
  atomic energy  EATOM  =      2116.34525819
  ---------------------------------------------------
  free energy    TOTEN  =        -7.93655378 eV

  energy without entropy =       -7.92884089  energy(sigma->0) =       -7.93269733


--------------------------------------------------------------------------------------------------------




----------------------------------------- Iteration    1(   6)  ---------------------------------------


     EDDAV:  cpu time   73.04: real time   73.04
       DOS:  cpu time    0.03: real time    0.03
    --------------------------------------------
      LOOP:  cpu time   73.08: real time   73.09

 eigenvalue-minimisations  : 19936
 total energy-change (2. order) :-0.1440590E-06  (-0.1434593E-06)
 number of electron      19.9999914 magnetization       0.0000000      0.0000000      0.0000000
 augmentation part       19.9999914 magnetization       0.0000000      0.0000000      0.0000000

 Free energy of the ion-electron system (eV)
  ---------------------------------------------------
  alpha Z        PSCENC =        26.74713621
  Ewald energy   TEWEN  =     -1420.79165657
  -Hartree energ DENC   =      -624.19823432
  -exchange      EXHF   =         0.00000000
  -V(xc)+E(xc)   XCENC  =        28.85110192
  PAW double counting   =      2250.81284417    -2249.90745952
  entropy T*S    EENTRO =        -0.00771289
  eigenvalues    EBANDS =      -135.78783111
  atomic energy  EATOM  =      2116.34525819
  ---------------------------------------------------
  free energy    TOTEN  =        -7.93655392 eV

  energy without entropy =       -7.92884103  energy(sigma->0) =       -7.93269748


--------------------------------------------------------------------------------------------------------




 average (electrostatic) potential at core
  the test charge radii are     1.0894  1.1897
  (the norm of the test charge is              1.0000)
       1-100.6359       2 -87.8542
 
 
 
 E-fermi :   6.8402     XC(G=0):  -9.4591     alpha+bet :-11.4178


 k-point     1 :       0.0000    0.0000    0.0000
  band No.  band energies     occupation 
      1     -15.6193      1.00000
      2     -15.6193      1.00000
      3     -15.6193      1.00000
      4     -15.6193      1.00000
      5     -14.5835      1.00000
      6     -14.5835      1.00000
      7     -14.5835      1.00000
      8     -14.5835      1.00000
      9     -14.5806      1.00000
     10     -14.5806      1.00000
     11      -5.8825      1.00000
     12      -5.8825      1.00000
     13       2.1585      1.00000
     14       2.1585      1.00000
     15       4.1821      1.00000
     16       4.1821      1.00000
     17       4.9997      1.00000
     18       4.9997      1.00000
     19       4.9997      1.00000
     20       4.9997      1.00000
     21       9.6354      0.00000
     22       9.6354      0.00000
     23      10.4602      0.00000
     24      10.4602      0.00000
     25      10.4603      0.00000
     26      10.4603      0.00000
     27      11.6037      0.00000
     28      11.6038      0.00000

 k-point     2 :       0.0128    0.0000    0.0128
  band No.  band energies     occupation 
      1     -15.6194      1.00000
      2     -15.6194      1.00000
      3     -15.6193      1.00000
      4     -15.6193      1.00000
      5     -14.5837      1.00000
      6     -14.5837      1.00000
      7     -14.5836      1.00000
      8     -14.5836      1.00000
      9     -14.5807      1.00000
     10     -14.5807      1.00000
     11      -5.8807      1.00000
     12      -5.8807      1.00000
     13       2.1462      1.00000
     14       2.1462      1.00000
     15       4.1861      1.00000
     16       4.1861      1.00000
     17       4.9960      1.00000
     18       4.9960      1.00000
     19       5.0093      1.00000
     20       5.0093      1.00000
     21       9.6253      0.00000
     22       9.6253      0.00000
     23      10.4343      0.00000
     24      10.4343      0.00000
     25      10.4599      0.00000
     26      10.4599      0.00000
     27      11.5983      0.00000
     28      11.6061      0.00000

 k-point     3 :       0.0256    0.0000    0.0256
  band No.  band energies     occupation 
      1     -15.6194      1.00000
      2     -15.6194      1.00000
      3     -15.6193      1.00000
      4     -15.6193      1.00000
      5     -14.5837      1.00000
      6     -14.5837      1.00000
      7     -14.5836      1.00000
      8     -14.5836      1.00000
      9     -14.5806      1.00000
     10     -14.5806      1.00000
     11      -5.8752      1.00000
     12      -5.8752      1.00000
     13       2.1103      1.00000
     14       2.1103      1.00000
     15       4.1965      1.00000
     16       4.1965      1.00000
     17       4.9849      1.00000
     18       4.9849      1.00000
     19       5.0389      1.00000
     20       5.0389      1.00000
     21       9.5922      0.00000
     22       9.5922      0.00000
     23      10.3641      0.00000
     24      10.3641      0.00000
     25      10.4593      0.00000
     26      10.4593      0.00000
     27      11.5671      0.00000
     28      11.5677      0.00000

 k-point     4 :       0.0385    0.0000    0.0385
  band No.  band energies     occupation 
      1     -15.6194      1.00000
      2     -15.6194      1.00000
[...]
  0.000   0.000   0.000   0.000   0.000   0.000   0.000   0.000   0.000   0.000   0.000   0.000   0.000   0.000   0.000   0.000
  0.000   0.000   0.000   0.000   0.000   0.000   0.000   0.000   0.000   0.000   0.000   0.000   0.000   0.000   0.000   0.000
  0.000   0.000   0.000   0.000   0.000   0.000   0.000   0.000   0.000   0.000   0.000   0.000   0.000   0.000   0.000   0.000
  0.000   0.000   0.000   0.000   0.000   0.000   0.000   0.000   0.000   0.000   0.000   0.000   0.000   0.000   0.000   0.000
  0.000   0.000   0.000   0.000   0.000   0.000   0.000   0.000   0.000   0.000   0.000   0.000   0.000   0.000   0.000   0.000
  0.000   0.000   0.000   0.000   0.000   0.000   0.000   0.000   0.000   0.000   2.000   0.000   0.000   0.000   0.000   0.000
  0.000   0.000   0.000   0.000   0.000   0.000   0.000   0.000   0.000   0.000   0.000   0.000   0.000   0.000   0.000   0.000
  0.000   0.000   0.000   0.000   0.000   0.000   0.000   0.000   0.000   0.000   0.000   0.000   0.667   0.000   0.000   0.000
  0.000   0.000   0.000   0.000   0.000   0.000   0.000   0.000   0.000   0.000   0.000   0.000   0.000   0.667   0.000   0.000
  0.000   0.000   0.000   0.000   0.000   0.000   0.000   0.000   0.000   0.000   0.000   0.000   0.000   0.000   0.667   0.000
  0.000   0.000   0.000   0.000   0.000   0.000   0.000   0.000   0.000   0.000   0.000   0.000   0.000   0.000   0.000   0.000
  0.000   0.000   0.000   0.000   0.000   0.000   0.000   0.000   0.000   0.000   0.000   0.000   0.000   0.000   0.000   0.000
  0.000   0.000   0.000   0.000   0.000   0.000   0.000   0.000   0.000   0.000   0.000   0.000   0.000   0.000   0.000   0.000
 total augmentation occupancy for first ion, spin component: 2
  0.000   0.000   0.000   0.000   0.000   0.000   0.000   0.000   0.000   0.000   0.000   0.000   0.000   0.000   0.000   0.000
  0.000   0.000   0.000   0.000   0.000   0.000   0.000   0.000   0.000   0.000   0.000   0.000   0.000   0.000   0.000   0.000
  0.000   0.000   0.000   0.000   0.000   0.000   0.000   0.000   0.000   0.000   0.000   0.000   0.000   0.000   0.000   0.000
  0.000   0.000   0.000   0.000   0.000   0.000   0.000   0.000   0.000   0.000   0.000   0.000   0.000   0.000   0.000   0.000
  0.000   0.000   0.000   0.000   0.000   0.000   0.000   0.000   0.000   0.000   0.000   0.000   0.000   0.000   0.000   0.000
  0.000   0.000   0.000   0.000   0.000   0.000   0.000   0.000   0.000   0.000   0.000   0.000   0.000   0.000   0.000   0.000
  0.000   0.000   0.000   0.000   0.000   0.000   0.000   0.000   0.000   0.000   0.000   0.000   0.000   0.000   0.000   0.000
  0.000   0.000   0.000   0.000   0.000   0.000   0.000   0.000   0.000   0.000   0.000   0.000   0.000   0.000   0.000   0.000
  0.000   0.000   0.000   0.000   0.000   0.000   0.000   0.000   0.000   0.000   0.000   0.000   0.000   0.000   0.000   0.000
  0.000   0.000   0.000   0.000   0.000   0.000   0.000   0.000   0.000   0.000   0.000   0.000   0.000   0.000   0.000   0.000
  0.000   0.000   0.000   0.000   0.000   0.000   0.000   0.000   0.000   0.000   0.000   0.000   0.000   0.000   0.000   0.000
  0.000   0.000   0.000   0.000   0.000   0.000   0.000   0.000   0.000   0.000   0.000   0.000   0.000   0.000   0.000   0.000
  0.000   0.000   0.000   0.000   0.000   0.000   0.000   0.000   0.000   0.000   0.000   0.000   0.000   0.000   0.000   0.000
  0.000   0.000   0.000   0.000   0.000   0.000   0.000   0.000   0.000   0.000   0.000   0.000   0.000   0.000   0.000   0.000
  0.000   0.000   0.000   0.000   0.000   0.000   0.000   0.000   0.000   0.000   0.000   0.000   0.000   0.000   0.000   0.000
  0.000   0.000   0.000   0.000   0.000   0.000   0.000   0.000   0.000   0.000   0.000   0.000   0.000   0.000   0.000   0.000
  0.000   0.000   0.000   0.000   0.000   0.000   0.000   0.000   0.000   0.000   0.000   0.000   0.000   0.000   0.000   0.000
  0.000   0.000   0.000   0.000   0.000   0.000   0.000   0.000   0.000   0.000   0.000   0.000   0.000   0.000   0.000   0.000
 total augmentation occupancy for first ion, spin component: 3
  0.000   0.000   0.000   0.000   0.000   0.000   0.000   0.000   0.000   0.000   0.000   0.000   0.000   0.000   0.000   0.000
  0.000   0.000   0.000   0.000   0.000   0.000   0.000   0.000   0.000   0.000   0.000   0.000   0.000   0.000   0.000   0.000
  0.000   0.000   0.000   0.000   0.000   0.000   0.000   0.000   0.000   0.000   0.000   0.000   0.000   0.000   0.000   0.000
  0.000   0.000   0.000   0.000   0.000   0.000   0.000   0.000   0.000   0.000   0.000   0.000   0.000   0.000   0.000   0.000
  0.000   0.000   0.000   0.000   0.000   0.000   0.000   0.000   0.000   0.000   0.000   0.000   0.000   0.000   0.000   0.000
  0.000   0.000   0.000   0.000   0.000   0.000   0.000   0.000   0.000   0.000   0.000   0.000   0.000   0.000   0.000   0.000
  0.000   0.000   0.000   0.000   0.000   0.000   0.000   0.000   0.000   0.000   0.000   0.000   0.000   0.000   0.000   0.000
  0.000   0.000   0.000   0.000   0.000   0.000   0.000   0.000   0.000   0.000   0.000   0.000   0.000   0.000   0.000   0.000
  0.000   0.000   0.000   0.000   0.000   0.000   0.000   0.000   0.000   0.000   0.000   0.000   0.000   0.000   0.000   0.000
  0.000   0.000   0.000   0.000   0.000   0.000   0.000   0.000   0.000   0.000   0.000   0.000   0.000   0.000   0.000   0.000
  0.000   0.000   0.000   0.000   0.000   0.000   0.000   0.000   0.000   0.000   0.000   0.000   0.000   0.000   0.000   0.000
  0.000   0.000   0.000   0.000   0.000   0.000   0.000   0.000   0.000   0.000   0.000   0.000   0.000   0.000   0.000   0.000
  0.000   0.000   0.000   0.000   0.000   0.000   0.000   0.000   0.000   0.000   0.000   0.000   0.000   0.000   0.000   0.000
  0.000   0.000   0.000   0.000   0.000   0.000   0.000   0.000   0.000   0.000   0.000   0.000   0.000   0.000   0.000   0.000
  0.000   0.000   0.000   0.000   0.000   0.000   0.000   0.000   0.000   0.000   0.000   0.000   0.000   0.000   0.000   0.000
  0.000   0.000   0.000   0.000   0.000   0.000   0.000   0.000   0.000   0.000   0.000   0.000   0.000   0.000   0.000   0.000
  0.000   0.000   0.000   0.000   0.000   0.000   0.000   0.000   0.000   0.000   0.000   0.000   0.000   0.000   0.000   0.000
  0.000   0.000   0.000   0.000   0.000   0.000   0.000   0.000   0.000   0.000   0.000   0.000   0.000   0.000   0.000   0.000
 total augmentation occupancy for first ion, spin component: 4
  0.000   0.000   0.000   0.000   0.000   0.000   0.000   0.000   0.000   0.000   0.000   0.000   0.000   0.000   0.000   0.000
  0.000   0.000   0.000   0.000   0.000   0.000   0.000   0.000   0.000   0.000   0.000   0.000   0.000   0.000   0.000   0.000
  0.000   0.000   0.000   0.000   0.000   0.000   0.000   0.000   0.000   0.000   0.000   0.000   0.000   0.000   0.000   0.000
  0.000   0.000   0.000   0.000   0.000   0.000   0.000   0.000   0.000   0.000   0.000   0.000   0.000   0.000   0.000   0.000
  0.000   0.000   0.000   0.000   0.000   0.000   0.000   0.000   0.000   0.000   0.000   0.000   0.000   0.000   0.000   0.000
  0.000   0.000   0.000   0.000   0.000   0.000   0.000   0.000   0.000   0.000   0.000   0.000   0.000   0.000   0.000   0.000
  0.000   0.000   0.000   0.000   0.000   0.000   0.000   0.000   0.000   0.000   0.000   0.000   0.000   0.000   0.000   0.000
  0.000   0.000   0.000   0.000   0.000   0.000   0.000   0.000   0.000   0.000   0.000   0.000   0.000   0.000   0.000   0.000
  0.000   0.000   0.000   0.000   0.000   0.000   0.000   0.000   0.000   0.000   0.000   0.000   0.000   0.000   0.000   0.000
  0.000   0.000   0.000   0.000   0.000   0.000   0.000   0.000   0.000   0.000   0.000   0.000   0.000   0.000   0.000   0.000
  0.000   0.000   0.000   0.000   0.000   0.000   0.000   0.000   0.000   0.000   0.000   0.000   0.000   0.000   0.000   0.000
  0.000   0.000   0.000   0.000   0.000   0.000   0.000   0.000   0.000   0.000   0.000   0.000   0.000   0.000   0.000   0.000
  0.000   0.000   0.000   0.000   0.000   0.000   0.000   0.000   0.000   0.000   0.000   0.000   0.000   0.000   0.000   0.000
  0.000   0.000   0.000   0.000   0.000   0.000   0.000   0.000   0.000   0.000   0.000   0.000   0.000   0.000   0.000   0.000
  0.000   0.000   0.000   0.000   0.000   0.000   0.000   0.000   0.000   0.000   0.000   0.000   0.000   0.000   0.000   0.000
  0.000   0.000   0.000   0.000   0.000   0.000   0.000   0.000   0.000   0.000   0.000   0.000   0.000   0.000   0.000   0.000
  0.000   0.000   0.000   0.000   0.000   0.000   0.000   0.000   0.000   0.000   0.000   0.000   0.000   0.000   0.000   0.000
  0.000   0.000   0.000   0.000   0.000   0.000   0.000   0.000   0.000   0.000   0.000   0.000   0.000   0.000   0.000   0.000


------------------------ aborting loop because EDIFF is reached ----------------------------------------


 


 total charge     
 
# of ion     s       p       d       tot
----------------------------------------
  1        1.364   0.749   9.962  12.074
  2        1.413   2.011   0.022   3.445
------------------------------------------------
tot        2.776   2.759   9.984  15.519
 


 magnetization (x)
 
# of ion     s       p       d       tot
----------------------------------------
  1        0.000   0.000   0.000   0.000
  2        0.000   0.000   0.000   0.000
------------------------------------------------
tot        0.000   0.000   0.000   0.000
 


 magnetization (y)
 
# of ion     s       p       d       tot
----------------------------------------
  1        0.000   0.000   0.000   0.000
  2        0.000   0.000   0.000   0.000
------------------------------------------------
tot        0.000   0.000   0.000   0.000
 


 magnetization (z)
 
# of ion     s       p       d       tot
----------------------------------------
  1        0.000   0.000   0.000   0.000
  2        0.000   0.000   0.000   0.000
------------------------------------------------
tot        0.000   0.000   0.000   0.000
 
    CHARGE:  cpu time    4.26: real time    4.25
    FORLOC:  cpu time    0.00: real time    0.00
    FORNL :  cpu time    1.33: real time    1.33
    STRESS:  cpu time    8.00: real time    8.00
    FORCOR:  cpu time    0.06: real time    0.06
    FORHAR:  cpu time    0.01: real time    0.01
    OFIELD:  cpu time    0.00: real time    0.00

  FORCE on cell =-STRESS in cart. coord.  units (eV):
  Direction    XX          YY          ZZ          XY          YZ          ZX
  --------------------------------------------------------------------------------------
  Alpha Z    26.74714    26.74714    26.74714
  Ewald    -473.59734  -473.59734  -473.59734     0.00000     0.00000     0.00000
  Hartree   208.08867   208.08867   208.08867     0.00000     0.00000     0.00000
  E(xc)     -94.27586   -94.27586   -94.27586     0.00002     0.00002     0.00002
  Local    -145.53041  -145.53041  -145.53041     0.00007     0.00007     0.00007
  n-local   185.07850   183.54079   183.97238    -0.18917    -0.31800    -0.22053
  augment   150.68147   150.68147   150.68147    -0.00002    -0.00002    -0.00002
  Kinetic   149.32228   142.16461   144.76282    -2.47747    -1.31673    -2.02503
  Fock        0.00000     0.00000     0.00000     0.00000     0.00000     0.00000
  -------------------------------------------------------------------------------------
  Total       1.72745     1.72745     1.72745     0.00000     0.00000     0.00000
  in kB      43.89726    43.89726    43.89726     0.00000     0.00000     0.00000
  external pressure =       43.90 kB  Pullay stress =        0.00 kB


 VOLUME and BASIS-vectors are now :
 -----------------------------------------------------------------------------
  energy-cutoff  :      301.35
  volume of cell :       63.05
      direct lattice vectors                 reciprocal lattice vectors
     0.000000000  3.159000071  3.159000071    -0.158277933  0.158277933  0.158277933
     3.159000071  0.000000000  3.159000071     0.158277933 -0.158277933  0.158277933
     3.159000071  3.159000071  0.000000000     0.158277933  0.158277933 -0.158277933

  length of vectors
     4.467500743  4.467500743  4.467500743     0.274145421  0.274145421  0.274145421


 FORCES acting on ions
    electron-ion (+dipol)            ewald-force                    non-local-force                 convergence-correction
 -----------------------------------------------------------------------------------------------
   -.465E-13 -.512E-13 -.545E-13   0.316E-15 -.391E-14 -.501E-14   0.367E-25 -.132E-22 0.856E-24   0.617E-13 0.548E-13 0.415E-14
   0.752E-13 0.679E-13 0.657E-13   0.398E-15 0.159E-14 0.486E-14   -.164E-24 -.347E-23 -.905E-23   -.620E-14 -.195E-13 -.199E-13
 -----------------------------------------------------------------------------------------------
   0.287E-13 0.166E-13 0.112E-13   0.714E-15 -.232E-14 -.153E-15   -.128E-24 -.167E-22 -.820E-23   0.555E-13 0.353E-13 -.158E-13
 
 
 POSITION                                       TOTAL-FORCE (eV/Angst)
 -----------------------------------------------------------------------------------
      0.00000      0.00000      0.00000         0.000000      0.000000      0.000000
      3.15900      3.15900      3.15900         0.000000      0.000000      0.000000
 -----------------------------------------------------------------------------------
    total drift:                                0.000000      0.000000      0.000000


--------------------------------------------------------------------------------------------------------



  FREE ENERGIE OF THE ION-ELECTRON SYSTEM (eV)
  ---------------------------------------------------
  free  energy   TOTEN  =        -7.93655392 eV

  energy  without entropy=       -7.92884103  energy(sigma->0) =       -7.93269748
 


--------------------------------------------------------------------------------------------------------


    POTLOK:  cpu time    2.66: real time    2.67


--------------------------------------------------------------------------------------------------------


     LOOP+:  cpu time  423.74: real time  424.23
    4ORBIT:  cpu time    0.00: real time    0.00

 Spin-Orbit-Coupling matrix elements

 Ion:    1  E_soc:     -0.0919410
 l=   1
     0.0000000    -0.0091855    -0.0091855
    -0.0091855     0.0000000    -0.0091855
    -0.0091855    -0.0091855     0.0000000
 l=   2
     0.0000000    -0.0012179     0.0000000    -0.0012179    -0.0049201
    -0.0012179     0.0000000    -0.0036901    -0.0012179    -0.0012300
     0.0000000    -0.0036901     0.0000000    -0.0036901     0.0000000
    -0.0012179    -0.0012179    -0.0036901     0.0000000    -0.0012300
    -0.0049201    -0.0012300     0.0000000    -0.0012300     0.0000000
 l=   3
     0.0000000     0.0000000     0.0000000     0.0000000     0.0000000     0.0000000     0.0000000
     0.0000000     0.0000000     0.0000000     0.0000000     0.0000000     0.0000000     0.0000000
     0.0000000     0.0000000     0.0000000     0.0000000     0.0000000     0.0000000     0.0000000
     0.0000000     0.0000000     0.0000000     0.0000000     0.0000000     0.0000000     0.0000000
     0.0000000     0.0000000     0.0000000     0.0000000     0.0000000     0.0000000     0.0000000
     0.0000000     0.0000000     0.0000000     0.0000000     0.0000000     0.0000000     0.0000000
     0.0000000     0.0000000     0.0000000     0.0000000     0.0000000     0.0000000     0.0000000

 Ion:    2  E_soc:     -0.1904074
 l=   1
     0.0000000    -0.0317588    -0.0317588
    -0.0317588     0.0000000    -0.0317588
    -0.0317588    -0.0317588     0.0000000
 l=   2
     0.0000000    -0.0000165     0.0000000    -0.0000165     0.0000408
    -0.0000165     0.0000000     0.0000306    -0.0000165     0.0000102
     0.0000000     0.0000306     0.0000000     0.0000306     0.0000000
    -0.0000165    -0.0000165     0.0000306     0.0000000     0.0000102
     0.0000408     0.0000102     0.0000000     0.0000102     0.0000000
 l=   3
     0.0000000     0.0000000     0.0000000     0.0000000     0.0000000     0.0000000     0.0000000
     0.0000000     0.0000000     0.0000000     0.0000000     0.0000000     0.0000000     0.0000000
     0.0000000     0.0000000     0.0000000     0.0000000     0.0000000     0.0000000     0.0000000
     0.0000000     0.0000000     0.0000000     0.0000000     0.0000000     0.0000000     0.0000000
     0.0000000     0.0000000     0.0000000     0.0000000     0.0000000     0.0000000     0.0000000
     0.0000000     0.0000000     0.0000000     0.0000000     0.0000000     0.0000000     0.0000000
     0.0000000     0.0000000     0.0000000     0.0000000     0.0000000     0.0000000     0.0000000
 


 total charge     
 
# of ion     s       p       d       tot
----------------------------------------
  1        1.364   0.749   9.962  12.074
  2        1.413   2.011   0.022   3.445
------------------------------------------------
tot        2.776   2.759   9.984  15.519
 


 magnetization (x)
 
# of ion     s       p       d       tot
----------------------------------------
  1        0.000   0.000   0.000   0.000
  2        0.000   0.000   0.000   0.000
------------------------------------------------
tot        0.000   0.000   0.000   0.000
 


 magnetization (y)
 
# of ion     s       p       d       tot
----------------------------------------
  1        0.000   0.000   0.000   0.000
  2        0.000   0.000   0.000   0.000
------------------------------------------------
tot        0.000   0.000   0.000   0.000
 


 magnetization (z)
 
# of ion     s       p       d       tot
----------------------------------------
  1        0.000   0.000   0.000   0.000
  2        0.000   0.000   0.000   0.000
------------------------------------------------
tot        0.000   0.000   0.000   0.000
 

 total amount of memory used by VASP on root node    52566. kBytes
========================================================================

   base      :      30000. kBytes
   nonl-proj :      11064. kBytes
   fftplans  :        394. kBytes
   grid      :       1370. kBytes
   one-center:         62. kBytes
   wavefun   :       9676. kBytes
 
  
  
 General timing and accounting informations for this job:
 ========================================================
  
                  Total CPU time used (sec):      438.310
                            User time (sec):      420.920
                          System time (sec):       17.390
                         Elapsed time (sec):      441.993
  
                   Maximum memory used (kb):       35560.
                   Average memory used (kb):           0.
  
                          Minor page faults:         2051
                          Major page faults:            0
                 Voluntary context switches:         1035
                                     fft time:      103.723
                                    ifft time:       99.927
                               wave init time:        2.077
                                   random num:        0.000
                              eccp local time:        3.100
                                eccp kin time:        0.102
                           eccp nonlocal time:        0.213
                                 v hamil time:       16.401
                               kin hamil time:        0.285
                          onlocal hamil  time:        0.000
                           nonlocal proj time:        0.000
                           nonlocal racc time:        0.000
                               fftbas called:            0
                           fftbas_mpi called:       154237
                               ranmar called:     20037261
                                       dis pw:        3.335
                                  tcrexp_wave:        0.000
                                  twork_crexp:       0.000
                                       tphase:        0.000
                                       tfornl:        0.000
