    2    2    1    1
  0.3152455E+02  0.4467501E-09  0.4467501E-09  0.4467501E-09  0.5000000E-15
 1.00000000000000005E-4
  CAR 
 unknown system                          
     20    240     28
 
  0.0000000E+00  0.0000000E+00  0.0000000E+00  0.4166667E-02
    1      -15.619316
    2      -15.619316
    3      -15.619279
    4      -15.619279
    5      -14.583522
    6      -14.583522
    7      -14.583493
    8      -14.583493
    9      -14.580594
   10      -14.580594
   11       -5.882531
   12       -5.882531
   13        2.158466
   14        2.158466
   15        4.182066
   16        4.182066
   17        4.999692
   18        4.999692
   19        4.999696
   20        4.999696
   21        9.635425
   22        9.635425
   23       10.460237
   24       10.460238
   25       10.460255
   26       10.460257
   27       11.603674
   28       11.603833
 
  0.1282051E-01  0.0000000E+00  0.1282051E-01  0.4166667E-02
    1      -15.619386
    2      -15.619386
    3      -15.619336
    4      -15.619336
    5      -14.583654
    6      -14.583654
    7      -14.583596
    8      -14.583596
    9      -14.580668
   10      -14.580668
   11       -5.880706
   12       -5.880706
   13        2.146170
   14        2.146170
   15        4.186104
   16        4.186104
   17        4.995975
   18        4.995975
   19        5.009315
   20        5.009315
   21        9.625264
   22        9.625264
   23       10.434310
   24       10.434311
   25       10.459927
   26       10.459927
   27       11.598327
   28       11.606053
 
  0.2564103E-01  0.0000000E+00  0.2564103E-01  0.4166667E-02
    1      -15.619384
    2      -15.619384
    3      -15.619327
    4      -15.619327
    5      -14.583677
    6      -14.583677
    7      -14.583582
    8      -14.583582
    9      -14.580642
   10      -14.580642
   11       -5.875178
   12       -5.875178
   13        2.110333
   14        2.110333
   15        4.196466
   16        4.196466
   17        4.984880
   18        4.984880
   19        5.038865
   20        5.038865
   21        9.592183
   22        9.592183
   23       10.364119
   24       10.364119
   25       10.459278
   26       10.459278
   27       11.567136
   28       11.567682
 
  0.3846154E-01  0.0000000E+00  0.3846154E-01  0.4166667E-02
    1      -15.619380
    2      -15.619380
    3      -15.619313
    4      -15.619313
    5      -14.583719
    6      -14.583719
    7      -14.583558
    8      -14.583558
    9      -14.580596
   10      -14.580596
   11       -5.865964
   12       -5.865964
   13        2.053768
   14        2.053768
   15        4.208671
   16        4.208671
   17        4.966586
   18        4.966586
   19        5.089904
   20        5.089904
   21        9.528203
   22        9.528203
   23       10.269732
   24       10.269732
   25       10.458937
   26       10.458937
   27       11.511026
   28       11.511088
 
  0.5128205E-01  0.0000000E+00  0.5128205E-01  0.4166667E-02
    1      -15.619376
    2      -15.619376
    3      -15.619290
    4      -15.619290
    5      -14.583778
    6      -14.583778
    7      -14.583523
    8      -14.583523
    9      -14.580530
   10      -14.580530
   11       -5.853078
   12       -5.853078
   13        1.980272
   14        1.980272
   15        4.217463
   16        4.217463
   17        4.941382
   18        4.941382
   19        5.163682
   20        5.163682
   21        9.422461
   22        9.422461
   23       10.176624
   24       10.176624
   25       10.459815
   26       10.459815
   27       11.435789
   28       11.435791
 
  0.6410256E-01  0.0000000E+00  0.6410256E-01  0.4166667E-02
    1      -15.619373
    2      -15.619373
    3      -15.619261
    4      -15.619261
    5      -14.583855
    6      -14.583855
    7      -14.583480
    8      -14.583480
    9      -14.580444
   10      -14.580444
   11       -5.836548
   12       -5.836548
   13        1.893835
   14        1.893835
   15        4.218748
   16        4.218748
   17        4.909642
   18        4.909642
   19        5.259872
   20        5.259872
   21        9.269318
   22        9.269318
   23       10.104033
   24       10.104033
   25       10.462886
   26       10.462887
   27       11.346982
   28       11.346983
 
  0.7692308E-01  0.0000000E+00  0.7692308E-01  0.4166667E-02
    1      -15.619369
    2      -15.619369
    3      -15.619226
    4      -15.619226
    5      -14.583949
    6      -14.583949
    7      -14.583432
    8      -14.583432
    9      -14.580337
   10      -14.580337
   11       -5.816408
   12       -5.816408
   13        1.798129
   14        1.798129
   15        4.210516
   16        4.210516
   17        4.871842
   18        4.871842
   19        5.376081
   20        5.376081
   21        9.075067
   22        9.075067
   23       10.057051
   24       10.057051
   25       10.469049
   26       10.469050
   27       11.248922
   28       11.248922
 
  0.8974359E-01  0.0000000E+00  0.8974359E-01  0.4166667E-02
    1      -15.619426
    2      -15.619426
    3      -15.619185
    4      -15.619185
    5      -14.584202
    6      -14.584202
    7      -14.583380
    8      -14.583380
    9      -14.580214
   10      -14.580214
   11       -5.792723
   12       -5.792723
   13        1.696235
   14        1.696235
   15        4.192557
   16        4.192557
   17        4.828510
   18        4.828510
   19        5.508053
   20        5.508053
   21        8.853471
   22        8.853471
   23       10.031342
   24       10.031343
   25       10.479040
   26       10.479041
   27       11.144872
   28       11.144874
 
  0.1025641E+00  0.0000000E+00  0.1025641E+00  0.4166667E-02
    1      -15.619422
    2      -15.619422
    3      -15.619138
    4      -15.619138
    5      -14.584328
    6      -14.584328
    7      -14.583326
    8      -14.583326
    9      -14.580062
   10      -14.580062
   11       -5.765522
   12       -5.765522
   13        1.590713
   14        1.590713
   15        4.165695
   16        4.165695
   17        4.780219
   18        4.780219
   19        5.650121
   20        5.650121
   21        8.618771
   22        8.618771
   23       10.021212
   24       10.021215
   25       10.493410
   26       10.493413
   27       11.037290
   28       11.037291
 
  0.1153846E+00  0.0000000E+00  0.1153846E+00  0.4166667E-02
    1      -15.619505
    2      -15.619505
    3      -15.619126
    4      -15.619126
    5      -14.584586
    6      -14.584586
    7      -14.583312
    8      -14.583312
    9      -14.580042
   10      -14.580042
   11       -5.734870
   12       -5.734870
   13        1.483528
   14        1.483528
   15        4.131156
   16        4.131156
   17        4.727578
   18        4.727578
   19        5.794802
   20        5.794802
   21        8.383819
   22        8.383819
   23       10.022563
   24       10.022563
   25       10.512517
   26       10.512517
   27       10.927918
   28       10.927918
 
  0.1282051E+00  0.0000000E+00  0.1282051E+00  0.4166667E-02
    1      -15.619611
    2      -15.619611
    3      -15.619093
    4      -15.619093
    5      -14.584931
    6      -14.584931
    7      -14.583276
    8      -14.583276
    9      -14.579959
   10      -14.579959
   11       -5.700831
   12       -5.700831
   13        1.376269
   14        1.376269
   15        4.090220
   16        4.090220
   17        4.671214
   18        4.671214
   19        5.931721
   20        5.931721
   21        8.162151
   22        8.162151
   23       10.032857
   24       10.032857
   25       10.536512
   26       10.536512
   27       10.818317
   28       10.818317
 
  0.1410256E+00  0.0000000E+00  0.1410256E+00  0.4166667E-02
    1      -15.619606
    2      -15.619606
    3      -15.619030
    4      -15.619030
    5      -14.585099
    6      -14.585099
    7      -14.583223
    8      -14.583223
    9      -14.579735
   10      -14.579735
   11       -5.663483
   12       -5.663483
   13        1.270153
   14        1.270153
   15        4.044050
   16        4.044050
   17        4.611740
   18        4.611740
   19        6.045382
   20        6.045382
   21        7.971029
   22        7.971029
   23       10.050653
   24       10.050653
   25       10.565514
   26       10.565514
   27       10.709493
   28       10.709493
 
  0.1538462E+00  0.0000000E+00  0.1538462E+00  0.4166667E-02
    1      -15.619602
    2      -15.619602
    3      -15.618962
    4      -15.618962
    5      -14.585282
    6      -14.585282
    7      -14.583175
    8      -14.583175
    9      -14.579488
   10      -14.579488
   11       -5.622934
   12       -5.622934
   13        1.166152
   14        1.166152
   15        3.993675
   16        3.993675
   17        4.549761
   18        4.549761
   19        6.113428
   20        6.113428
   21        7.833804
   22        7.833804
   23       10.074949
   24       10.074949
   25       10.594391
   26       10.594391
   27       10.607279
   28       10.607280
 
  0.1666667E+00  0.0000000E+00  0.1666667E+00  0.4166667E-02
    1      -15.619576
    2      -15.619576
    3      -15.618911
    4      -15.618911
    5      -14.585445
    6      -14.585445
    7      -14.583181
    8      -14.583181
    9      -14.579200
   10      -14.579200
   11       -5.579296
   12       -5.579296
   13        1.065040
   14        1.065040
   15        3.939987
   16        3.939987
   17        4.485852
   18        4.485852
   19        6.111302
   20        6.111302
   21        7.775626
   22        7.775626
   23       10.105091
   24       10.105091
   25       10.495880
   26       10.495880
   27       10.639369
   28       10.639369
 
  0.1794872E+00  0.0000000E+00  0.1794872E+00  0.4166667E-02
    1      -15.619472
    2      -15.619472
    3      -15.618801
    4      -15.618801
    5      -14.585500
    6      -14.585500
    7      -14.583115
    8      -14.583115
    9      -14.578762
   10      -14.578762
   11       -5.532720
   12       -5.532720
   13        0.967465
   14        0.967465
   15        3.883784
   16        3.883784
   17        4.420586
   18        4.420586
   19        6.028080
   20        6.028080
   21        7.807731
   22        7.807731
   23       10.140551
   24       10.140551
   25       10.393075
   26       10.393075
   27       10.683109
   28       10.683109
 
  0.1923077E+00  0.0000000E+00  0.1923077E+00  0.4166667E-02
    1      -15.619466
    2      -15.619466
    3      -15.618720
    4      -15.618720
    5      -14.585716
    6      -14.585716
    7      -14.583081
    8      -14.583081
    9      -14.578444
   10      -14.578444
   11       -5.483338
   12       -5.483338
   13        0.873933
   14        0.873933
   15        3.825741
   16        3.825741
   17        4.354476
   18        4.354476
   19        5.875951
   20        5.875951
   21        7.918101
   22        7.918101
   23       10.180896
   24       10.180896
   25       10.293034
   26       10.293034
   27       10.731499
   28       10.731499
 
  0.2051282E+00  0.0000000E+00  0.2051282E+00  0.4166667E-02
    1      -15.619464
    2      -15.619464
    3      -15.618637
    4      -15.618637
    5      -14.585945
    6      -14.585945
    7      -14.583050
    8      -14.583050
    9      -14.578109
   10      -14.578109
   11       -5.431313
   12       -5.431313
   13        0.784889
   14        0.784889
   15        3.766466
   16        3.766466
   17        4.288020
   18        4.288020
   19        5.677643
   20        5.677643
   21        8.084127
   22        8.084127
   23       10.196111
   24       10.196111
   25       10.225747
   26       10.225747
   27       10.784234
   28       10.784234
 
  0.2179487E+00  0.0000000E+00  0.2179487E+00  0.4166667E-02
    1      -15.619465
    2      -15.619465
    3      -15.618552
    4      -15.618552
    5      -14.586185
    6      -14.586185
    7      -14.583023
    8      -14.583023
    9      -14.577762
   10      -14.577762
   11       -5.376835
   12       -5.376835
   13        0.700718
   14        0.700718
   15        3.706484
   16        3.706484
   17        4.221680
   18        4.221680
   19        5.452206
   20        5.452206
   21        8.286808
   22        8.286808
   23       10.102540
   24       10.102540
   25       10.274725
   26       10.274725
   27       10.841017
   28       10.841017
 
  0.2307692E+00  0.0000000E+00  0.2307692E+00  0.4166667E-02
    1      -15.619470
    2      -15.619470
    3      -15.618466
    4      -15.618466
    5      -14.586435
    6      -14.586435
    7      -14.583001
    8      -14.583001
    9      -14.577406
   10      -14.577406
   11       -5.320124
   12       -5.320124
   13        0.621750
   14        0.621750
   15        3.646244
   16        3.646244
   17        4.155876
   18        4.155876
   19        5.212006
   20        5.212006
   21        8.513765
   22        8.513765
   23       10.012507
   24       10.012507
   25       10.327452
   26       10.327452
   27       10.901530
   28       10.901530
 
  0.2435897E+00  0.0000000E+00  0.2435897E+00  0.4166667E-02
    1      -15.619320
    2      -15.619320
    3      -15.618286
    4      -15.618286
    5      -14.586457
    6      -14.586457
    7      -14.582866
    8      -14.582866
    9      -14.576778
   10      -14.576778
   11       -5.261418
   12       -5.261418
   13        0.548312
   14        0.548312
   15        3.586131
   16        3.586131
   17        4.091021
   18        4.091021
   19        4.964585
   20        4.964585
   21        8.757428
   22        8.757428
   23        9.926157
   24        9.926157
   25       10.383568
   26       10.383568
   27       10.965458
   28       10.965458
 
  0.2564103E+00  0.0000000E+00  0.2564103E+00  0.4166667E-02
    1      -15.619326
    2      -15.619326
    3      -15.618196
    4      -15.618196
    5      -14.586716
    6      -14.586716
    7      -14.582847
    8      -14.582847
    9      -14.576402
   10      -14.576402
   11       -5.201024
   12       -5.201024
   13        0.480665
   14        0.480665
   15        3.526399
   16        3.526399
   17        4.027438
   18        4.027438
   19        4.714649
   20        4.714649
   21        9.013014
   22        9.013014
   23        9.843606
   24        9.843606
   25       10.442626
   26       10.442626
   27       11.032364
   28       11.032365
 
  0.2692308E+00  0.0000000E+00  0.2692308E+00  0.4166667E-02
    1      -15.619334
    2      -15.619334
    3      -15.618106
    4      -15.618106
    5      -14.586979
    6      -14.586979
    7      -14.582830
    8      -14.582830
    9      -14.576025
   10      -14.576025
   11       -5.139226
   12       -5.139226
   13        0.419095
   14        0.419095
   15        3.467198
   16        3.467198
   17        3.965474
   18        3.965474
   19        4.465379
   20        4.465379
   21        9.277351
   22        9.277351
   23        9.764952
   24        9.764952
   25       10.504237
   26       10.504237
   27       11.101873
   28       11.101873
 
  0.2820513E+00  0.0000000E+00  0.2820513E+00  0.4166667E-02
    1      -15.619433
    2      -15.619433
    3      -15.618193
    4      -15.618193
    5      -14.587380
    6      -14.587380
    7      -14.583133
    8      -14.583133
    9      -14.575834
   10      -14.575834
   11       -5.076380
   12       -5.076380
   13        0.363864
   14        0.363864
   15        3.408419
   16        3.408419
   17        3.905421
   18        3.905421
   19        4.219193
   20        4.219193
   21        9.548111
   22        9.548111
   23        9.690190
   24        9.690190
   25       10.567960
   26       10.567960
   27       11.173524
   28       11.173524
 
  0.2948718E+00  0.0000000E+00  0.2948718E+00  0.4166667E-02
    1      -15.619448
    2      -15.619448
    3      -15.618104
    4      -15.618104
    5      -14.587649
    6      -14.587649
    7      -14.583118
    8      -14.583118
    9      -14.575460
   10      -14.575460
   11       -5.012830
   12       -5.012830
   13        0.315230
   14        0.315230
   15        3.349450
   16        3.349450
   17        3.847562
   18        3.847562
   19        3.978497
   20        3.978497
   21        9.619558
   22        9.619558
   23        9.823421
   24        9.823422
   25       10.633416
   26       10.633416
   27       11.246877
   28       11.246877
 
  0.3076923E+00  0.0000000E+00  0.3076923E+00  0.4166667E-02
    1      -15.619466
    2      -15.619466
    3      -15.618016
    4      -15.618016
    5      -14.587916
    6      -14.587916
    7      -14.583105
    8      -14.583105
    9      -14.575092
   10      -14.575092
   11       -4.949009
   12       -4.949009
   13        0.273440
   14        0.273440
   15        3.288258
   16        3.288258
   17        3.746672
   18        3.746672
   19        3.792127
   20        3.792127
   21        9.553024
   22        9.553024
   23       10.101508
   24       10.101508
   25       10.700233
   26       10.700233
   27       11.321390
   28       11.321390
 
  0.3205128E+00  0.0000000E+00  0.3205128E+00  0.4166667E-02
    1      -15.619564
    2      -15.619564
    3      -15.617923
    4      -15.617923
    5      -14.588364
    6      -14.588364
    7      -14.583079
    8      -14.583079
    9      -14.574724
   10      -14.574724
   11       -4.885393
   12       -4.885393
   13        0.238701
   14        0.238701
   15        3.218254
   16        3.218254
   17        3.531461
   18        3.531461
   19        3.739349
   20        3.739349
   21        9.490632
   22        9.490632
   23       10.380389
   24       10.380389
   25       10.768395
   26       10.768395
   27       11.396497
   28       11.396497
 
  0.3333333E+00  0.0000000E+00  0.3333333E+00  0.4166667E-02
    1      -15.619582
    2      -15.619582
    3      -15.617841
    4      -15.617841
    5      -14.588617
    6      -14.588617
    7      -14.583068
    8      -14.583068
    9      -14.574375
   10      -14.574375
   11       -4.822447
   12       -4.822447
   13        0.211332
   14        0.211332
   15        3.118270
   16        3.118270
   17        3.355043
   18        3.355043
   19        3.689431
   20        3.689431
   21        9.432424
   22        9.432424
   23       10.655620
   24       10.655621
   25       10.840310
   26       10.840310
   27       11.471589
   28       11.471589
 
  0.3461538E+00  0.0000000E+00  0.3461538E+00  0.4166667E-02
    1      -15.619600
    2      -15.619600
    3      -15.617762
    4      -15.617762
    5      -14.588861
    6      -14.588861
    7      -14.583058
    8      -14.583058
    9      -14.574039
   10      -14.574039
   11       -4.760715
   12       -4.760715
   13        0.191511
   14        0.191511
   15        2.962093
   16        2.962093
   17        3.244558
   18        3.244558
   19        3.642554
   20        3.642554
   21        9.378429
   22        9.378429
   23       10.871856
   24       10.871856
   25       10.969114
   26       10.969114
   27       11.546002
   28       11.546002
 
  0.3589744E+00  0.0000000E+00  0.3589744E+00  0.4166667E-02
    1      -15.619619
    2      -15.619619
    3      -15.617746
    4      -15.617746
    5      -14.589032
    6      -14.589032
    7      -14.583134
    8      -14.583134
    9      -14.573858
   10      -14.573858
   11       -4.700766
   12       -4.700766
   13        0.179413
   14        0.179413
   15        2.772575
   16        2.772575
   17        3.178017
   18        3.178017
   19        3.598880
   20        3.598880
   21        9.328670
   22        9.328670
   23       10.953603
   24       10.953603
   25       11.227865
   26       11.227865
   27       11.618962
   28       11.618962
 
  0.3717949E+00  0.0000000E+00  0.3717949E+00  0.4166667E-02
    1      -15.619635
    2      -15.619635
    3      -15.617676
    4      -15.617676
    5      -14.589250
    6      -14.589250
    7      -14.583127
    8      -14.583127
    9      -14.573557
   10      -14.573557
   11       -4.643162
   12       -4.643162
   13        0.175160
   14        0.175160
   15        2.577205
   16        2.577205
   17        3.128837
   18        3.128837
   19        3.558554
   20        3.558554
   21        9.283182
   22        9.283182
   23       11.018677
   24       11.018677
   25       11.496109
   26       11.496109
   27       11.689810
   28       11.689810
 
  0.3846154E+00  0.0000000E+00  0.3846154E+00  0.4166667E-02
    1      -15.619653
    2      -15.619653
    3      -15.617612
    4      -15.617612
    5      -14.589455
    6      -14.589455
    7      -14.583121
    8      -14.583121
    9      -14.573279
   10      -14.573279
   11       -4.588524
   12       -4.588524
   13        0.178786
   14        0.178786
   15        2.385785
   16        2.385785
   17        3.088127
   18        3.088127
   19        3.521705
   20        3.521705
   21        9.241977
   22        9.241977
   23       11.079201
   24       11.079201
   25       11.757682
   26       11.757682
   27       11.758658
   28       11.758658
 
  0.3974359E+00  0.0000000E+00  0.3974359E+00  0.4166667E-02
    1      -15.619671
    2      -15.619671
    3      -15.617553
    4      -15.617553
    5      -14.589646
    6      -14.589646
    7      -14.583115
    8      -14.583115
    9      -14.573024
   10      -14.573024
   11       -4.537472
   12       -4.537472
   13        0.190184
   14        0.190184
   15        2.202088
   16        2.202088
   17        3.053124
   18        3.053124
   19        3.488447
   20        3.488447
   21        9.205072
   22        9.205072
   23       11.135654
   24       11.135654
   25       11.821732
   26       11.821732
   27       12.011555
   28       12.011556
 
  0.4102564E+00  0.0000000E+00  0.4102564E+00  0.4166667E-02
    1      -15.619690
    2      -15.619690
    3      -15.617501
    4      -15.617501
    5      -14.589820
    6      -14.589820
    7      -14.583112
    8      -14.583112
    9      -14.572796
   10      -14.572796
   11       -4.490622
   12       -4.490622
   13        0.209049
   14        0.209049
   15        2.028294
   16        2.028294
   17        3.022814
   18        3.022814
   19        3.458874
   20        3.458874
   21        9.172480
   22        9.172480
   23       11.187589
   24       11.187589
   25       11.881079
   26       11.881079
   27       12.251242
   28       12.251242
 
  0.4230769E+00  0.0000000E+00  0.4230769E+00  0.4166667E-02
    1      -15.619685
    2      -15.619685
    3      -15.617411
    4      -15.617411
    5      -14.589942
    6      -14.589942
    7      -14.583024
    8      -14.583024
    9      -14.572554
   10      -14.572554
   11       -4.448572
   12       -4.448572
   13        0.234748
   14        0.234748
   15        1.866266
   16        1.866266
   17        2.996784
   18        2.996784
   19        3.433076
   20        3.433076
   21        9.144221
   22        9.144221
   23       11.234399
   24       11.234399
   25       11.934873
   26       11.934873
   27       12.473883
   28       12.473883
 
  0.4358974E+00  0.0000000E+00  0.4358974E+00  0.4166667E-02
    1      -15.619699
    2      -15.619699
    3      -15.617371
    4      -15.617371
    5      -14.590074
    6      -14.590074
    7      -14.583021
    8      -14.583021
    9      -14.572379
   10      -14.572379
   11       -4.411907
   12       -4.411907
   13        0.266145
   14        0.266145
   15        1.718056
   16        1.718056
   17        2.974854
   18        2.974854
   19        3.411127
   20        3.411127
   21        9.120288
   22        9.120288
   23       11.275382
   24       11.275382
   25       11.982178
   26       11.982178
   27       12.675092
   28       12.675093
 
  0.4487179E+00  0.0000000E+00  0.4487179E+00  0.4166667E-02
    1      -15.619654
    2      -15.619654
    3      -15.617327
    4      -15.617327
    5      -14.590085
    6      -14.590085
    7      -14.583013
    8      -14.583013
    9      -14.572179
   10      -14.572179
   11       -4.381121
   12       -4.381121
   13        0.301350
   14        0.301350
   15        1.586291
   16        1.586291
   17        2.956946
   18        2.956946
   19        3.393088
   20        3.393088
   21        9.100697
   22        9.100697
   23       11.309923
   24       11.309923
   25       12.022204
   26       12.022204
   27       12.850021
   28       12.850028
 
  0.4615385E+00  0.0000000E+00  0.4615385E+00  0.4166667E-02
    1      -15.619662
    2      -15.619662
    3      -15.617300
    4      -15.617300
    5      -14.590169
    6      -14.590169
    7      -14.583009
    8      -14.583009
    9      -14.572063
   10      -14.572063
   11       -4.356680
   12       -4.356680
   13        0.337350
   14        0.337350
   15        1.474564
   16        1.474564
   17        2.943026
   18        2.943026
   19        3.379007
   20        3.379007
   21        9.085454
   22        9.085454
   23       11.337437
   24       11.337437
   25       12.054190
   26       12.054190
   27       12.993520
   28       12.993520
 
  0.4743590E+00  0.0000000E+00  0.4743590E+00  0.4166667E-02
    1      -15.619608
    2      -15.619608
    3      -15.617260
    4      -15.617260
    5      -14.590133
    6      -14.590133
    7      -14.582989
    8      -14.582989
    9      -14.571901
   10      -14.571901
   11       -4.338942
   12       -4.338942
   13        0.369733
   14        0.369733
   15        1.387755
   16        1.387755
   17        2.933086
   18        2.933086
   19        3.368924
   20        3.368924
   21        9.074564
   22        9.074564
   23       11.357461
   24       11.357461
   25       12.077531
   26       12.077531
   27       13.100564
   28       13.100564
 
  0.4871795E+00  0.0000000E+00  0.4871795E+00  0.4166667E-02
    1      -15.619612
    2      -15.619612
    3      -15.617248
    4      -15.617248
    5      -14.590171
    6      -14.590171
    7      -14.582987
    8      -14.582987
    9      -14.571851
   10      -14.571851
   11       -4.328185
   12       -4.328185
   13        0.392849
   14        0.392849
   15        1.331841
   16        1.331841
   17        2.927122
   18        2.927122
   19        3.362865
   20        3.362865
   21        9.068029
   22        9.068029
   23       11.369622
   24       11.369622
   25       12.091729
   26       12.091729
   27       13.166803
   28       13.166803
 
  0.5000000E+00  0.0000000E+00  0.5000000E+00  0.4166667E-02
    1      -15.619613
    2      -15.619613
    3      -15.617244
    4      -15.617244
    5      -14.590183
    6      -14.590183
    7      -14.582986
    8      -14.582986
    9      -14.571834
   10      -14.571834
   11       -4.324582
   12       -4.324582
   13        0.401329
   14        0.401329
   15        1.312407
   16        1.312407
   17        2.925135
   18        2.925135
   19        3.360844
   20        3.360844
   21        9.065850
   22        9.065850
   23       11.373701
   24       11.373701
   25       12.096496
   26       12.096496
   27       13.189249
   28       13.189250
 
  0.5000000E+00  0.0000000E+00  0.5000000E+00  0.4166667E-02
    1      -15.619613
    2      -15.619613
    3      -15.617244
    4      -15.617244
    5      -14.590183
    6      -14.590183
    7      -14.582986
    8      -14.582986
    9      -14.571834
   10      -14.571834
   11       -4.324582
   12       -4.324582
   13        0.401329
   14        0.401329
   15        1.312407
   16        1.312407
   17        2.925135
   18        2.925135
   19        3.360844
   20        3.360844
   21        9.065850
   22        9.065850
   23       11.373701
   24       11.373701
   25       12.096496
   26       12.096496
   27       13.189249
   28       13.189249
 
  0.5032051E+00  0.6410256E-02  0.5032051E+00  0.4166667E-02
    1      -15.619612
    2      -15.619612
    3      -15.617244
    4      -15.617244
    5      -14.590181
    6      -14.590181
    7      -14.582986
    8      -14.582986
    9      -14.571835
   10      -14.571835
   11       -4.324516
   12       -4.324516
   13        0.400252
   14        0.400252
   15        1.312679
   16        1.312679
   17        2.925847
   18        2.925847
   19        3.361477
   20        3.361477
   21        9.066921
   22        9.066921
   23       11.372194
   24       11.372194
   25       12.094636
   26       12.094636
   27       13.188623
   28       13.188623
 
  0.5064103E+00  0.1282051E-01  0.5064103E+00  0.4166667E-02
    1      -15.619611
    2      -15.619611
    3      -15.617245
    4      -15.617245
    5      -14.590177
    6      -14.590177
    7      -14.582987
    8      -14.582987
    9      -14.571841
   10      -14.571841
   11       -4.324317
   12       -4.324317
   13        0.397028
   14        0.397028
   15        1.313495
   16        1.313495
   17        2.927979
   18        2.927979
   19        3.363378
   20        3.363378
   21        9.070133
   22        9.070133
   23       11.367676
   24       11.367676
   25       12.089074
   26       12.089074
   27       13.186747
   28       13.186748
 
  0.5096154E+00  0.1923077E-01  0.5096154E+00  0.4166667E-02
    1      -15.619610
    2      -15.619610
    3      -15.617247
    4      -15.617247
    5      -14.590170
    6      -14.590170
    7      -14.582987
    8      -14.582987
    9      -14.571849
   10      -14.571849
   11       -4.323986
   12       -4.323986
   13        0.391677
   14        0.391677
   15        1.314855
   16        1.314855
   17        2.931509
   18        2.931509
   19        3.366547
   20        3.366547
   21        9.075481
   22        9.075481
   23       11.360168
   24       11.360168