    2    2    1    1
  0.3152455E+02  0.4467501E-09  0.4467501E-09  0.4467501E-09  0.5000000E-15
  1.000000000000000E-004
  CAR 
 unknown system                          
   20    4   16
 
  0.0000000E+00  0.0000000E+00  0.0000000E+00  0.2500000E+00
   1      -15.015397
   2      -15.015397
   3      -15.011287
   4      -15.011277
   5      -15.011277
   6       -5.887276
   7        2.149580
   8        4.736492
   9        4.736492
  10        4.736499
  11       10.192655
  12       10.192655
  13       10.192682
  14       11.625420
  15       11.625430
  16       11.625430
 
  0.5000000E+00  0.5000000E+00  0.5000000E+00  0.2500000E+00
   1      -15.021207
   2      -15.021207
   3      -15.009731
   4      -15.004488
   5      -15.004488
   6       -4.624661
   7       -1.437673
   8        5.071647
   9        5.071647
  10        6.876216
  11        6.949264
  12        7.237518
  13        7.237518
  14       14.625394
  15       15.600388
  16       15.694338
 
  0.5000000E+00  0.2500000E+00  0.7500000E+00  0.2500000E+00
   1      -15.027295
   2      -15.015800
   3      -15.008106
   4      -15.008100
   5      -15.000695
   6       -4.242338
   7       -0.489668
   8        2.078583
   9        2.078606
  10        6.037873
  11        7.706713
  12       11.474762
  13       11.474767
  14       12.895121
  15       12.895147
  16       17.201073
 
  0.5000000E+00  0.0000000E+00  0.5000000E+00  0.2500000E+00
   1      -15.032436
   2      -15.015345
   3      -15.011003
   4      -15.000699
   5      -15.000693
   6       -4.330142
   7        0.392989
   8        1.336219
   9        3.152909
  10        3.152912
  11        9.065505
  12       11.748060
  13       11.748080
  14       13.191931
  15       15.840125
  16       17.417033
