       N       E                     dE             d eps       ncg     rms          rms(c)
DAV:   1     0.104065809966E+03    0.10407E+03   -0.73065E+03   128   0.106E+03
DAV:   2     0.311585241786E+00   -0.10375E+03   -0.10188E+03   144   0.253E+02
DAV:   3    -0.662677273084E+01   -0.69384E+01   -0.69244E+01   168   0.711E+01
DAV:   4    -0.677994287996E+01   -0.15317E+00   -0.15312E+00   176   0.117E+01
DAV:   5    -0.678645404839E+01   -0.65112E-02   -0.65111E-02   176   0.201E+00
DAV:   6    -0.678674509375E+01   -0.29105E-03   -0.29105E-03   200   0.349E-01
DAV:   7    -0.678674681049E+01   -0.17167E-05   -0.17162E-05   168   0.290E-02
DAV:   8    -0.678674682925E+01   -0.18758E-07   -0.18678E-07   136   0.366E-03
   1 F= -.67867468E+01 E0= -.67575707E+01  d E =-.583523E-01
